material_id,formula,diel_elec_wren,diel_elec_ale,diel_ionic_wren,diel_ionic_ale,diel_total_wren,diel_total_ale,bandgap_pbe,diel_total_wren_indi,fom_wren,ae_indi_direct,wyckoff,e_form
mp-1218495,Sr4Ti3Nb2O15,5.6156,0.1599,84.84,17.4675,85.0672,6.839,1.6529,90.4556,149.5141,5.3884,"['Nb-2 @ c-166', 'O-3 @ d-166', 'O-6 @ h-166', 'O-6 @ h-166', 'Sr-2 @ c-166', 'Sr-2 @ c-166', 'Ti-1 @ a-166', 'Ti-2 @ c-166']",-3.4138
mp-558755,Tl4Mo2O8,4.2441,0.0865,40.8624,5.9129,26.1734,0.8373,3.3154,45.1066,149.5463,18.9332,"['Mo-2 @ d-164', 'O-2 @ d-164', 'O-6 @ i-164', 'Tl-1 @ a-164', 'Tl-1 @ b-164', 'Tl-2 @ d-164']",-1.7084
mp-1079172,Pb4Se4,12.2556,0.429,78.2018,7.9863,76.3804,5.7651,1.6543,90.4574,149.6436,14.0769,"['Pb-4 @ c-62', 'Se-4 @ c-62']",-0.5081
wbm-2-15253,Sr1Sn1F4,3.0203,0.0901,45.0163,6.7047,41.8953,3.3969,3.12,48.0366,149.8743,6.1414,"['F-4 @ i-123', 'Sn-1 @ a-123', 'Sr-1 @ d-123']",-3.3898
mp-1205742,Tl3Cr1F6,3.6347,0.1118,40.1989,3.1833,28.3393,1.6741,3.4202,43.8336,149.9195,15.4943,"['Cr-1 @ a-225', 'F-6 @ e-225', 'Tl-1 @ b-225', 'Tl-2 @ c-225']",-2.47
mp-504554,Ba5Ta4O15,4.727,0.0944,44.3016,1.7198,46.9967,4.1801,3.0588,49.0286,149.9686,2.0319,"['Ba-1 @ a-164', 'Ba-2 @ d-164', 'Ba-2 @ d-164', 'O-3 @ e-164', 'O-6 @ i-164', 'O-6 @ i-164', 'Ta-2 @ c-164', 'Ta-2 @ d-164']",-3.4503
wbm-2-36388,Ba1Na2Ta2O7,4.3471,0.0883,64.7681,5.6041,108.7566,21.2696,2.17,69.1152,149.98,39.6414,"['Ba-1 @ a-139', 'Na-2 @ d-139', 'O-1 @ b-139', 'O-2 @ e-139', 'O-4 @ g-139', 'Ta-2 @ e-139']",-3.0901
mp-14531,Na2Nb6O16,5.2878,0.1048,61.4417,3.2602,51.0073,4.273,2.2477,66.7296,149.988,15.7223,"['Na-2 @ a-72', 'Nb-2 @ b-72', 'Nb-4 @ j-72', 'O-4 @ j-72', 'O-4 @ j-72', 'O-8 @ k-72']",-2.9474
wbm-1-38930,K4Zr2O6,3.5793,0.0676,37.4615,2.0563,41.555,2.8433,3.66,41.0407,150.2091,0.5143,"['K-4 @ b-36', 'O-2 @ a-36', 'O-4 @ b-36', 'Zr-2 @ a-36']",-2.7919
mp-3180,Ta8Te8O36,5.0276,0.1085,41.8831,2.0389,34.8603,5.1327,3.2045,46.9107,150.3253,12.0504,"['O-2 @ a-14', 'O-2 @ d-14', 'O-4 @ e-14', 'O-4 @ e-14', 'O-4 @ e-14', 'O-4 @ e-14', 'O-4 @ e-14', 'O-4 @ e-14', 'O-4 @ e-14', 'O-4 @ e-14', 'Ta-4 @ e-14', 'Ta-4 @ e-14', 'Te-4 @ e-14', 'Te-4 @ e-14']",-2.5091
mp-556094,Ag2Bi2S2Cl4,6.7327,0.0977,109.7125,4.3697,127.2451,7.4783,1.2912,116.4452,150.3541,10.7999,"['Ag-2 @ a-63', 'Bi-2 @ c-63', 'Cl-4 @ f-63', 'S-2 @ c-63']",-0.9719
mp-769317,Ca16Ta8O36,4.5277,0.0837,33.8257,2.1867,43.5389,5.4114,3.9225,38.3534,150.4411,5.1855,"['Ca-2 @ a-14', 'Ca-2 @ d-14', 'Ca-4 @ e-14', 'Ca-4 @ e-14', 'Ca-4 @ e-14', 'O-4 @ e-14', 'O-4 @ e-14', 'O-4 @ e-14', 'O-4 @ e-14', 'O-4 @ e-14', 'O-4 @ e-14', 'O-4 @ e-14', 'O-4 @ e-14', 'O-4 @ e-14', 'Ta-4 @ e-14', 'Ta-4 @ e-14']",-3.4956
mp-31213,Sr4Ti3O10,5.0551,0.0976,79.2844,25.7565,92.7236,20.121,1.7863,84.3396,150.6557,8.384,"['O-2 @ c-139', 'O-2 @ e-139', 'O-2 @ e-139', 'O-4 @ g-139', 'Sr-2 @ e-139', 'Sr-2 @ e-139', 'Ti-1 @ a-139', 'Ti-2 @ e-139']",-3.5184
mp-1227101,Ca2Ta2Al2O10,4.5587,0.1105,34.3218,3.6705,28.548,2.9906,3.8749,38.8805,150.6581,10.3326,"['Al-2 @ a-9', 'Ca-2 @ a-9', 'O-2 @ a-9', 'O-2 @ a-9', 'O-2 @ a-9', 'O-2 @ a-9', 'O-2 @ a-9', 'Ta-2 @ a-9']",-3.4937
mp-557466,Bi4F12,3.2905,0.1068,33.8405,1.589,26.5555,2.7336,4.0576,37.1311,150.663,10.5755,"['Bi-4 @ e-215', 'F-1 @ a-215', 'F-1 @ b-215', 'F-3 @ c-215', 'F-3 @ d-215', 'F-4 @ e-215']",-2.5326
mp-1221993,Mg2Zr2Si4O14,3.7549,0.0789,50.7699,56.5093,29.5644,5.0892,2.7637,54.5248,150.6901,24.9604,"['Mg-2 @ a-74', 'O-2 @ e-74', 'O-2 @ e-74', 'O-2 @ e-74', 'O-8 @ j-74', 'Si-2 @ b-74', 'Si-2 @ c-74', 'Zr-2 @ d-74']",-3.2919
mp-1222787,La2Ti2Nb2O12,5.8159,0.1352,42.033,1.857,34.7776,1.2693,3.1539,47.849,150.9109,13.0714,"['La-1 @ a-5', 'La-1 @ b-5', 'Nb-2 @ c-5', 'O-2 @ c-5', 'O-2 @ c-5', 'O-2 @ c-5', 'O-2 @ c-5', 'O-2 @ c-5', 'O-2 @ c-5', 'Ti-2 @ c-5']",-3.529
mp-1194680,Ta4Tl4V8O32,5.6813,0.1403,48.6878,5.9716,105.9114,17.6695,2.7795,54.3691,151.1189,51.5423,"['O-4 @ c-62', 'O-4 @ c-62', 'O-4 @ c-62', 'O-4 @ c-62', 'O-8 @ d-62', 'O-8 @ d-62', 'Ta-4 @ c-62', 'Tl-4 @ c-62', 'V-4 @ c-62', 'V-4 @ c-62']",-2.5377
mp-1208225,Ti1Bi6P2O16,5.3343,0.136,53.0331,4.6485,46.8727,2.9439,2.5912,58.3674,151.2415,11.4946,"['Bi-2 @ c-5', 'Bi-2 @ c-5', 'Bi-2 @ c-5', 'O-1 @ a-5', 'O-1 @ a-5', 'O-2 @ c-5', 'O-2 @ c-5', 'O-2 @ c-5', 'O-2 @ c-5', 'O-2 @ c-5', 'O-2 @ c-5', 'O-2 @ c-5', 'P-2 @ c-5', 'Ti-1 @ b-5']",-2.2627
mp-4156,Li4Zr2O6,4.3592,0.0961,35.0382,1.6385,36.4307,2.6314,3.8414,39.3974,151.3412,2.9667,"['Li-2 @ e-15', 'Li-2 @ e-15', 'O-2 @ c-15', 'O-4 @ f-15', 'Zr-2 @ e-15']",-3.0478
wbm-3-36420,Sr1Li2Nb2O7,4.9366,0.0983,75.7606,11.343,53.9142,10.6997,1.88,80.6971,151.7106,26.783,"['Li-2 @ c-44', 'Nb-2 @ c-44', 'O-1 @ a-44', 'O-2 @ c-44', 'O-2 @ c-44', 'O-2 @ c-44', 'Sr-1 @ b-44']",-3.019
mp-769307,Ca8Ta4O18,4.2569,0.1036,29.4531,2.0282,36.9692,2.564,4.5006,33.71,151.7152,3.2592,"['Ca-4 @ d-165', 'Ca-4 @ d-165', 'O-12 @ g-165', 'O-6 @ f-165', 'Ta-4 @ c-165']",-3.4908
mp-1227704,Ca3Nb4O12F2,4.9151,0.1355,51.2341,3.6518,43.8146,5.1791,2.7047,56.1491,151.8665,12.3345,"['Ca-3 @ d-166', 'F-2 @ c-166', 'Nb-1 @ b-166', 'Nb-3 @ e-166', 'O-6 @ h-166', 'O-6 @ h-166']",-3.3528
wbm-1-50757,Pb2S2,16.9322,0.8853,320.823,18.6821,317.2237,26.8605,0.45,337.7552,151.9899,20.5315,"['Pb-2 @ a-225', 'S-2 @ b-225']",-0.8632
mp-1220400,Nd4Sc2Nb2O14,5.4944,0.1399,53.5609,5.5229,77.0687,16.0916,2.5738,59.0553,151.9966,18.0134,"['Nb-2 @ a-74', 'Nd-2 @ b-74', 'Nd-2 @ c-74', 'O-2 @ e-74', 'O-2 @ e-74', 'O-2 @ e-74', 'O-8 @ j-74', 'Sc-2 @ d-74']",-3.6685
mp-1218099,Ta6Ti1Tl2O18,5.708,0.1712,45.9611,3.0,40.9694,1.714,2.9431,51.669,152.0672,10.6996,"['O-2 @ c-5', 'O-2 @ c-5', 'O-2 @ c-5', 'O-2 @ c-5', 'O-2 @ c-5', 'O-2 @ c-5', 'O-2 @ c-5', 'O-2 @ c-5', 'O-2 @ c-5', 'Ta-2 @ c-5', 'Ta-2 @ c-5', 'Ta-2 @ c-5', 'Ti-1 @ a-5', 'Tl-2 @ c-5']",-3.1397
wbm-1-37969,Zr3O6,5.343,0.101,31.7678,1.2769,35.5028,1.0138,4.1,37.1108,152.1542,1.608,"['O-2 @ c-5', 'O-2 @ c-5', 'O-2 @ c-5', 'Zr-1 @ a-5', 'Zr-2 @ c-5']",-3.6914
mp-13109,Sr2Hf2O6,4.4,0.0914,33.7629,1.9125,36.3288,2.7807,3.9894,38.1629,152.2469,1.834,"['Hf-2 @ a-74', 'O-2 @ e-74', 'O-4 @ g-74', 'Sr-2 @ e-74']",-3.8194
mp-1221083,Na2Nb2W2O12,5.0125,0.1207,46.4437,5.4877,53.8394,8.747,2.9596,51.4563,152.2899,2.3832,"['Na-2 @ a-74', 'Nb-2 @ c-74', 'O-2 @ e-74', 'O-2 @ e-74', 'O-8 @ j-74', 'W-2 @ b-74']",-2.5377
mp-1206644,Ba2Sc1Nb1O6,5.3513,0.1519,53.8848,5.7651,57.5396,6.7689,2.5719,59.2361,152.3494,1.6965,"['Ba-2 @ c-225', 'Nb-1 @ a-225', 'O-6 @ e-225', 'Sc-1 @ b-225']",-3.4861
mp-10250,Ba1Li1F3,2.3553,0.0733,20.8365,3.4746,17.7556,1.265,6.5716,23.1918,152.4074,5.4362,"['Ba-1 @ a-221', 'F-3 @ c-221', 'Li-1 @ b-221']",-3.7673
wbm-3-53165,Ca2Ta1In1O6,4.4062,0.0855,39.266,3.1412,37.6825,4.193,3.49,43.6723,152.4162,5.9897,"['Ca-2 @ i-12', 'In-1 @ a-12', 'O-2 @ i-12', 'O-4 @ j-12', 'Ta-1 @ d-12']",-3.0959
mp-759812,Li4Ti11O24,5.4408,0.1421,60.9466,6.0514,48.0891,5.5431,2.2962,66.3874,152.4387,18.2982,"['Li-2 @ i-12', 'Li-2 @ i-12', 'O-2 @ i-12', 'O-2 @ i-12', 'O-2 @ i-12', 'O-2 @ i-12', 'O-2 @ i-12', 'O-2 @ i-12', 'O-4 @ j-12', 'O-4 @ j-12', 'O-4 @ j-12', 'Ti-1 @ a-12', 'Ti-2 @ e-12', 'Ti-2 @ i-12', 'Ti-2 @ i-12', 'Ti-4 @ j-12']",-3.2955
wbm-2-6950,Tl2Sn2Br6,5.587,0.1238,78.2823,17.6668,121.3835,6.7975,1.82,83.8693,152.6421,37.5142,"['Br-2 @ c-63', 'Br-4 @ f-63', 'Sn-2 @ a-63', 'Tl-2 @ c-63']",-0.8343
mp-756704,Lu2Ta6O18,5.8514,0.1199,39.5411,1.6881,41.4702,1.6274,3.3628,45.3924,152.6457,3.9223,"['Lu-2 @ e-11', 'O-2 @ e-11', 'O-2 @ e-11', 'O-2 @ e-11', 'O-4 @ f-11', 'O-4 @ f-11', 'O-4 @ f-11', 'Ta-2 @ a-11', 'Ta-4 @ f-11']",-3.5266
mp-6259,Sr1Li2Ta2O7,4.3719,0.0949,64.2212,10.6568,86.5227,18.7108,2.2312,68.5931,153.045,17.9295,"['Li-2 @ d-139', 'O-1 @ a-139', 'O-2 @ e-139', 'O-4 @ g-139', 'Sr-1 @ b-139', 'Ta-2 @ e-139']",-3.2184
mp-769399,Ba2Ta8O22,5.644,0.1975,38.5591,1.6916,45.442,2.2528,3.4624,44.2031,153.0489,1.2389,"['Ba-2 @ c-182', 'O-12 @ i-182', 'O-4 @ f-182', 'O-6 @ g-182', 'Ta-2 @ d-182', 'Ta-6 @ g-182']",-3.4053
wbm-2-16594,Nd2Pb1F8,2.7769,0.0923,26.9543,2.9541,16.5052,1.152,5.15,29.7312,153.1155,13.226,"['F-2 @ i-12', 'F-2 @ i-12', 'F-2 @ i-12', 'F-2 @ i-12', 'Nd-2 @ i-12', 'Pb-1 @ a-12']",-3.9519
wbm-1-42796,Sr2La1Ta1O6,4.5492,0.0869,38.0643,1.8478,35.0048,3.3551,3.6,42.6135,153.4086,7.6087,"['La-1 @ a-12', 'O-2 @ i-12', 'O-4 @ j-12', 'Sr-2 @ i-12', 'Ta-1 @ d-12']",-3.5244
mp-1209028,Sn12I4F20,3.7722,0.1294,48.8099,2.6436,31.9926,2.6468,2.9176,52.5821,153.4135,20.5895,"['F-4 @ e-14', 'F-4 @ e-14', 'F-4 @ e-14', 'F-4 @ e-14', 'F-4 @ e-14', 'I-4 @ e-14', 'Sn-4 @ e-14', 'Sn-4 @ e-14', 'Sn-4 @ e-14']",-2.239
mp-1214081,Ca4Sc2Ta2O12,4.8572,0.0974,36.2779,2.1849,38.2794,3.3544,3.7328,41.135,153.5489,2.8557,"['Ca-4 @ e-14', 'O-4 @ e-14', 'O-4 @ e-14', 'O-4 @ e-14', 'Sc-2 @ a-14', 'Ta-2 @ d-14']",-3.6385
mp-769297,Sr5Ta4O15,4.5865,0.0984,47.1702,2.0714,62.4212,9.5069,2.9673,51.7567,153.5778,10.6645,"['O-3 @ e-164', 'O-6 @ i-164', 'O-6 @ i-164', 'Sr-1 @ a-164', 'Sr-2 @ d-164', 'Sr-2 @ d-164', 'Ta-2 @ c-164', 'Ta-2 @ d-164']",-3.473
mp-1205391,Ta4Sb4O16,5.8582,0.1056,45.5241,2.9719,50.001,2.7246,2.9971,51.3823,153.998,1.3813,"['O-8 @ e-52', 'O-8 @ e-52', 'Sb-4 @ c-52', 'Ta-4 @ d-52']",-2.7188
mp-773510,Ti1V2Cr1O10,4.9113,0.2656,94.9353,136.6689,149.75,11.8875,1.5437,99.8466,154.1331,49.9035,"['Cr-1 @ a-115', 'O-2 @ g-115', 'O-4 @ j-115', 'O-4 @ k-115', 'Ti-1 @ b-115', 'V-2 @ g-115']",-2.2788
mp-1342,Ba1O1,4.3127,0.0833,64.0644,14.2694,64.1366,3.67,2.2561,68.3771,154.2656,4.2405,"['Ba-1 @ a-225', 'O-1 @ b-225']",-2.8313
mp-1216909,Ti4Nb4Tl4O20,5.5637,0.1257,57.4642,3.6448,39.977,5.9258,2.4489,63.0279,154.3491,23.0509,"['Nb-4 @ c-62', 'O-4 @ c-62', 'O-4 @ c-62', 'O-4 @ c-62', 'O-4 @ c-62', 'O-4 @ c-62', 'Ti-4 @ c-62', 'Tl-4 @ c-62']",-2.8744
mp-1223498,K1La1Ta2O7,5.2044,0.1303,61.8388,4.4504,67.5966,14.4316,2.304,67.0432,154.4674,0.5535,"['K-1 @ a-38', 'La-1 @ a-38', 'O-1 @ a-38', 'O-1 @ a-38', 'O-1 @ b-38', 'O-1 @ b-38', 'O-1 @ b-38', 'O-1 @ b-38', 'O-1 @ b-38', 'Ta-1 @ b-38', 'Ta-1 @ b-38']",-3.3965
mp-23101,Nb2Bi2Pb1O9,6.3219,0.1245,109.5769,9.3668,50.8547,10.9369,1.334,115.8987,154.6089,65.044,"['Bi-2 @ e-139', 'Nb-2 @ e-139', 'O-1 @ a-139', 'O-2 @ d-139', 'O-2 @ e-139', 'O-4 @ g-139', 'Pb-1 @ b-139']",-2.3415
mp-780387,Yb4Hf4O12,4.5271,0.0902,29.7189,1.7449,29.5525,1.5191,4.5175,34.246,154.7061,4.6934,"['Hf-4 @ a-62', 'O-4 @ c-62', 'O-8 @ d-62', 'Yb-4 @ c-62']",-3.9803
mp-1176501,Lu2Bi2O6,5.5615,0.1214,43.0058,4.5211,40.9946,4.1798,3.1861,48.5672,154.74,7.5726,"['Bi-2 @ a-161', 'Lu-2 @ a-161', 'O-6 @ b-161']",-2.8643
wbm-1-40214,Ba4Zr4O12,4.9969,0.1062,45.4564,2.6354,45.0797,2.9439,3.07,50.4532,154.8914,5.3736,"['Ba-4 @ e-74', 'O-4 @ e-74', 'O-8 @ f-74', 'Zr-4 @ c-74']",-3.6481
wbm-2-34396,Ba2Zr2O6,4.9969,0.1062,45.4564,2.6354,45.0797,2.9439,3.07,50.4533,154.8916,5.3736,"['Ba-2 @ e-74', 'O-2 @ e-74', 'O-4 @ f-74', 'Zr-2 @ c-74']",-3.6482
wbm-1-44128,K3Ti1O1F5,2.4559,0.0735,35.7296,5.6964,10.1757,0.6531,4.06,38.1854,155.0328,28.0097,"['F-1 @ a-8', 'F-2 @ b-8', 'F-2 @ b-8', 'K-1 @ a-8', 'K-1 @ a-8', 'K-1 @ a-8', 'O-1 @ a-8', 'Ti-1 @ a-8']",-3.3275
wbm-1-15157,Sr2Tl2F6,2.8259,0.1074,30.8904,2.4239,29.4231,2.1074,4.6,33.7164,155.0954,4.2933,"['F-6 @ b-161', 'Sr-2 @ a-161', 'Tl-2 @ a-161']",-3.2898
mp-1103389,Sr3Ta2Zn1O9,4.6121,0.0866,40.858,3.1864,69.2831,15.5809,3.4116,45.4701,155.1258,23.813,"['O-3 @ e-164', 'O-6 @ i-164', 'Sr-1 @ a-164', 'Sr-2 @ d-164', 'Ta-2 @ d-164', 'Zn-1 @ b-164']",-3.2363
mp-862832,Pa1Tl1O3,5.4891,0.1392,47.6704,2.3735,43.1697,10.5682,2.9186,53.1595,155.1512,9.9897,"['O-3 @ c-221', 'Pa-1 @ b-221', 'Tl-1 @ a-221']",-3.1841
mp-3335,Sm4Ti4O14,4.9782,0.1844,50.0233,2.4681,68.1365,6.7234,2.8216,55.0015,155.1921,13.1351,"['O-12 @ f-227', 'O-2 @ a-227', 'Sm-4 @ c-227', 'Ti-4 @ d-227']",-3.735
mp-3666,Li2Ta2O6,5.1699,0.1089,35.9615,1.7397,38.8087,3.4193,3.7746,41.1314,155.2546,2.3227,"['Li-2 @ a-161', 'O-6 @ b-161', 'Ta-2 @ a-161']",-3.1363
mp-1192537,Nb6Pb3O18,5.6365,0.1322,53.0334,3.8764,111.0069,18.3597,2.6465,58.6699,155.2698,52.337,"['Nb-3 @ b-146', 'Nb-3 @ b-146', 'O-3 @ b-146', 'O-3 @ b-146', 'O-3 @ b-146', 'O-3 @ b-146', 'O-3 @ b-146', 'O-3 @ b-146', 'Pb-1 @ a-146', 'Pb-1 @ a-146', 'Pb-1 @ a-146']",-2.7547
wbm-3-55555,Ba2Th1Zr1O6,4.8011,0.0838,36.3111,1.6763,32.2711,1.7063,3.78,41.1122,155.4039,8.8411,"['Ba-2 @ i-12', 'O-2 @ i-12', 'O-4 @ j-12', 'Th-1 @ a-12', 'Zr-1 @ d-12']",-3.6976
wbm-1-14776,Ba2Tl2F6,2.9513,0.0934,32.45,3.209,29.3337,1.7773,4.39,35.4014,155.4119,6.0676,"['Ba-2 @ a-161', 'F-6 @ b-161', 'Tl-2 @ a-161']",-3.2278
mp-1220088,Nd2Ho2Zr4O14,5.5791,0.117,45.5229,2.0845,71.2767,19.881,3.0438,51.102,155.5443,20.1746,"['Ho-2 @ a-74', 'Nd-2 @ c-74', 'O-2 @ e-74', 'O-2 @ e-74', 'O-2 @ e-74', 'O-8 @ j-74', 'Zr-2 @ b-74', 'Zr-2 @ d-74']",-3.8606
mp-770454,La4Ti6O18,8.1803,0.1953,49.1357,1.7043,49.2791,7.1498,2.715,57.3161,155.6132,8.037,"['La-2 @ a-4', 'La-2 @ a-4', 'O-2 @ a-4', 'O-2 @ a-4', 'O-2 @ a-4', 'O-2 @ a-4', 'O-2 @ a-4', 'O-2 @ a-4', 'O-2 @ a-4', 'O-2 @ a-4', 'O-2 @ a-4', 'Ti-2 @ a-4', 'Ti-2 @ a-4', 'Ti-2 @ a-4']",-3.6505
mp-1226158,Cs2Zr1W3O12,4.0469,0.0963,47.8306,5.0461,24.2174,2.8109,3.0012,51.8775,155.6947,27.66,"['Cs-2 @ c-5', 'O-2 @ c-5', 'O-2 @ c-5', 'O-2 @ c-5', 'O-2 @ c-5', 'O-2 @ c-5', 'O-2 @ c-5', 'W-1 @ a-5', 'W-2 @ c-5', 'Zr-1 @ b-5']",-2.5528
wbm-1-38271,Ca2Hf2O6,4.4068,0.0858,34.1438,1.9729,35.9338,3.0586,4.04,38.5507,155.7447,2.6169,"['Ca-2 @ e-74', 'Hf-2 @ a-74', 'O-2 @ e-74', 'O-4 @ g-74']",-3.8089
mp-768223,Cs4Ce2O6,4.2302,0.0881,59.5048,5.775,69.3076,7.6272,2.4439,63.735,155.762,5.5726,"['Ce-2 @ a-36', 'Cs-4 @ b-36', 'O-2 @ a-36', 'O-4 @ b-36']",-2.6821
mp-28534,Ca2In2Br6,3.898,0.0861,45.7854,526.907,66.1556,267.5609,3.1362,49.6834,155.8172,16.4722,"['Br-2 @ c-63', 'Br-4 @ f-63', 'Ca-2 @ a-63', 'In-2 @ c-63']",-1.5057
wbm-2-16309,Tl2Sn1F6,2.9518,0.0927,30.5048,6.1795,21.4434,1.8935,4.66,33.4566,155.908,12.0132,"['F-6 @ e-225', 'Sn-1 @ a-225', 'Tl-2 @ c-225']",-2.5515
mp-1009756,Ca2Pb1,145.4142,147.8998,57.226,3.1174,99.9032,20.8905,0.7695,202.6402,155.9317,102.7371,"['Ca-2 @ c-225', 'Pb-1 @ a-225']",-0.5149
wbm-3-36456,Li2Th1Zr2O7,4.7522,0.0856,47.6099,5.2395,31.5343,3.1484,2.98,52.3621,156.0392,20.8278,"['Li-2 @ d-139', 'O-1 @ a-139', 'O-2 @ e-139', 'O-4 @ g-139', 'Th-1 @ b-139', 'Zr-2 @ e-139']",-3.4324
wbm-3-54955,Sr2Nb1In1O6,4.6261,0.09,43.5819,3.5556,33.9783,3.4699,3.24,48.208,156.1939,14.2297,"['In-1 @ a-12', 'Nb-1 @ d-12', 'O-2 @ i-12', 'O-4 @ j-12', 'Sr-2 @ i-12']",-2.9859
wbm-3-50786,Ca2Zr2O6,4.6929,0.0877,40.7324,3.2044,49.1439,3.0617,3.44,45.4253,156.2629,3.7186,"['Ca-2 @ e-74', 'O-2 @ e-74', 'O-4 @ f-74', 'Zr-2 @ c-74']",-3.6544
mp-1186878,Ta2Mo2O11,5.8897,0.1774,53.526,3.1337,61.399,11.5103,2.631,59.4157,156.3227,1.9833,"['Mo-2 @ c-166', 'O-2 @ c-166', 'O-3 @ d-166', 'O-6 @ h-166', 'Ta-2 @ c-166']",-2.6655
mp-755941,Sm6Ta2O14,4.7473,0.1005,41.398,2.337,31.3714,2.1046,3.3884,46.1453,156.3588,14.7739,"['O-2 @ c-63', 'O-4 @ g-63', 'O-8 @ h-63', 'Sm-2 @ a-63', 'Sm-4 @ g-63', 'Ta-2 @ b-63']",-3.7895
mp-1228204,Ba6Ca2Ti2W2O18,4.5162,0.094,44.9515,3.1058,36.2279,3.8569,3.1633,49.4677,156.4813,13.2398,"['Ba-2 @ a-186', 'Ba-2 @ b-186', 'Ba-2 @ b-186', 'Ca-2 @ a-186', 'O-6 @ c-186', 'O-6 @ c-186', 'O-6 @ c-186', 'Ti-2 @ b-186', 'W-2 @ b-186']",-3.1724
wbm-1-43223,Na2Sr1Ta2O7,4.2289,0.0898,67.5723,8.1482,114.0786,22.3442,2.18,71.8012,156.5265,42.2775,"['Na-2 @ d-139', 'O-1 @ a-139', 'O-2 @ e-139', 'O-4 @ g-139', 'Sr-1 @ b-139', 'Ta-2 @ e-139']",-3.1156
mp-1223094,La3Y1Ti4O14,5.2595,0.1387,52.3169,3.4607,61.1623,4.9961,2.7211,57.5765,156.6713,3.5859,"['La-3 @ d-166', 'O-2 @ c-166', 'O-6 @ h-166', 'O-6 @ h-166', 'Ti-1 @ b-166', 'Ti-3 @ e-166', 'Y-1 @ a-166']",-3.7472
mp-754625,Sr4Ta4N4O8,7.0781,0.2172,138.2156,9.1772,134.0199,8.6606,1.0806,145.2937,157.0044,11.2738,"['N-2 @ i-12', 'N-2 @ i-12', 'O-2 @ e-12', 'O-2 @ h-12', 'O-2 @ i-12', 'O-2 @ i-12', 'Sr-2 @ f-12', 'Sr-2 @ g-12', 'Ta-1 @ c-12', 'Ta-1 @ d-12', 'Ta-2 @ i-12']",-2.7425
wbm-3-23336,Rb3Y1F6,2.1347,0.0696,23.7345,2.0667,9.1054,0.4296,6.07,25.8692,157.0263,16.7638,"['F-2 @ c-5', 'F-2 @ c-5', 'F-2 @ c-5', 'Rb-1 @ a-5', 'Rb-2 @ c-5', 'Y-1 @ b-5']",-3.5854
wbm-1-38142,Ba2Hf2O6,4.7476,0.0961,39.8269,2.4649,40.1517,3.4616,3.53,44.5745,157.348,4.4228,"['Ba-2 @ a-221', 'Hf-2 @ b-221', 'O-6 @ c-221']",-3.7954
wbm-2-36322,Ca1Ti1Ge2O7,3.87,0.0753,48.7635,6.3707,20.99,2.0773,2.99,52.6335,157.3741,31.6435,"['Ca-1 @ a-5', 'Ge-2 @ c-5', 'O-1 @ b-5', 'O-2 @ c-5', 'O-2 @ c-5', 'O-2 @ c-5', 'Ti-1 @ a-5']",-2.7792
wbm-2-35240,Ba2Ta1Al1O6,4.8177,0.147,40.0233,2.9982,42.6707,4.2283,3.51,44.841,157.3919,2.1703,"['Al-1 @ a-225', 'Ba-2 @ c-225', 'O-6 @ e-225', 'Ta-1 @ b-225']",-3.4024
mp-1188528,Na4Nb4O12,5.6378,0.1099,61.2934,9.5564,64.165,9.1117,2.3517,66.9313,157.4022,2.7662,"['Na-4 @ a-33', 'Nb-4 @ a-33', 'O-4 @ a-33', 'O-4 @ a-33', 'O-4 @ a-33']",-2.8385
mp-754225,Yb4Ti4O12,5.2701,0.115,63.182,8.9401,52.5549,3.4208,2.3002,68.4521,157.4535,15.8972,"['O-4 @ c-62', 'O-8 @ d-62', 'Ti-4 @ a-62', 'Yb-4 @ c-62']",-3.7426
wbm-3-53758,Sr2Ta1Ga1O6,4.3613,0.0909,34.6188,3.3083,29.4409,2.259,4.04,38.9801,157.4797,9.5392,"['Ga-1 @ a-12', 'O-2 @ i-12', 'O-4 @ j-12', 'Sr-2 @ i-12', 'Ta-1 @ d-12']",-3.1867
wbm-1-41366,Ta2Bi2O8,5.5682,0.1014,40.3481,2.3316,29.8132,2.7726,3.43,45.9163,157.4928,16.1031,"['Bi-2 @ a-88', 'O-8 @ f-88', 'Ta-2 @ b-88']",-2.666
wbm-4-10740,K3Y1F6,2.0049,0.0657,23.1951,3.3187,8.8953,0.5326,6.25,25.2,157.5001,16.3047,"['F-2 @ c-5', 'F-2 @ c-5', 'F-2 @ c-5', 'K-1 @ a-5', 'K-2 @ c-5', 'Y-1 @ b-5']",-3.6017
mp-754853,Ca4Hf4O12,4.4849,0.0958,30.6469,1.6448,30.6035,1.7154,4.4854,35.1318,157.58,4.5283,"['Ca-4 @ c-62', 'Hf-4 @ a-62', 'O-4 @ c-62', 'O-8 @ d-62']",-3.8301
mp-769610,Ca10Ta8O30,4.4481,0.1266,43.6596,2.8699,51.4248,4.2078,3.2828,48.1077,157.9279,3.3172,"['Ca-2 @ b-165', 'Ca-4 @ d-165', 'Ca-4 @ d-165', 'O-12 @ g-165', 'O-12 @ g-165', 'O-6 @ e-165', 'Ta-4 @ c-165', 'Ta-4 @ d-165']",-3.4453
mp-756156,Rb4Zr2O6,3.5952,0.0701,41.0066,2.0711,44.1769,2.6509,3.541,44.6018,157.9348,0.4249,"['O-2 @ a-36', 'O-4 @ b-36', 'Rb-4 @ b-36', 'Zr-2 @ a-36']",-2.758
mp-973981,Lu2Br2O2,3.9883,0.0841,31.7497,5.4016,31.7418,6.0201,4.4252,35.738,158.1477,3.9962,"['Br-2 @ c-129', 'Lu-2 @ c-129', 'O-2 @ a-129']",-3.1844
mp-14964,Pr6Ta2O14,4.736,0.0977,41.5536,2.5938,29.9077,2.2811,3.4185,46.2896,158.241,16.3819,"['O-2 @ c-63', 'O-4 @ g-63', 'O-8 @ h-63', 'Pr-2 @ a-63', 'Pr-4 @ g-63', 'Ta-2 @ b-63']",-3.727
mp-1205824,Sc1Tl3F6,3.3551,0.1155,44.2676,4.8994,34.4089,1.8945,3.3232,47.6227,158.2596,13.2138,"['F-6 @ e-225', 'Sc-1 @ a-225', 'Tl-1 @ b-225', 'Tl-2 @ c-225']",-2.9189
mp-1220836,Pb3Br1F5,4.0201,0.1129,48.7706,9.9069,45.9381,6.5679,2.9997,52.7908,158.3564,6.8527,"['Br-1 @ a-8', 'F-1 @ a-8', 'F-1 @ a-8', 'F-1 @ a-8', 'F-1 @ a-8', 'F-1 @ a-8', 'Pb-1 @ a-8', 'Pb-1 @ a-8', 'Pb-1 @ a-8']",-2.2859
mp-1227370,Ca2Ti2Si1Ge1O10,4.2734,0.0979,52.8415,5.1517,30.0136,1.718,2.7759,57.115,158.5455,27.1014,"['Ca-1 @ a-5', 'Ca-1 @ b-5', 'Ge-1 @ a-5', 'O-1 @ a-5', 'O-1 @ b-5', 'O-2 @ c-5', 'O-2 @ c-5', 'O-2 @ c-5', 'O-2 @ c-5', 'Si-1 @ b-5', 'Ti-2 @ c-5']",-3.2696
mp-1221100,Na1Ca1Nb3Bi2O12,6.0151,0.1151,113.4526,12.0721,120.0065,39.1019,1.3275,119.4677,158.5934,0.5388,"['Bi-1 @ a-107', 'Bi-1 @ a-107', 'Ca-1 @ a-107', 'Na-1 @ a-107', 'Nb-1 @ a-107', 'Nb-1 @ a-107', 'Nb-1 @ a-107', 'O-1 @ a-107', 'O-1 @ a-107', 'O-1 @ a-107', 'O-1 @ a-107', 'O-2 @ b-107', 'O-2 @ b-107', 'O-2 @ b-107', 'O-2 @ b-107']",-2.6772
mp-1199037,Na8Nb8O24,5.5794,0.1343,84.7341,8.0316,111.6002,14.9765,1.7575,90.3135,158.726,21.2867,"['Na-2 @ a-17', 'Na-2 @ b-17', 'Na-2 @ c-17', 'Na-2 @ d-17', 'Nb-4 @ e-17', 'Nb-4 @ e-17', 'O-2 @ a-17', 'O-2 @ b-17', 'O-2 @ c-17', 'O-2 @ d-17', 'O-4 @ e-17', 'O-4 @ e-17', 'O-4 @ e-17', 'O-4 @ e-17']",-2.8154
mp-1222764,La2Ta2Ti2O12,5.5351,0.1416,41.1797,1.6794,33.5096,1.1167,3.4001,46.7149,158.8352,13.2053,"['La-1 @ a-5', 'La-1 @ b-5', 'O-2 @ c-5', 'O-2 @ c-5', 'O-2 @ c-5', 'O-2 @ c-5', 'O-2 @ c-5', 'O-2 @ c-5', 'Ta-2 @ c-5', 'Ti-2 @ c-5']",-3.6552