material_id,formula,diel_elec_wren,diel_elec_ale,diel_ionic_wren,diel_ionic_ale,diel_total_wren,diel_total_ale,bandgap_pbe,diel_total_wren_indi,fom_wren,ae_indi_direct,wyckoff,e_form
wbm-1-43220,Na2Ca1Ta2O7,4.3141,0.0936,69.6525,11.2404,129.9811,23.7338,2.15,73.9667,159.0283,56.0144,"['Ca-1 @ a-139', 'Na-2 @ d-139', 'O-1 @ b-139', 'O-2 @ e-139', 'O-4 @ g-139', 'Ta-2 @ e-139']",-3.0864
wbm-3-23943,Na2Sr1Zr1F8,2.3041,0.0712,24.3872,3.0106,9.0151,0.4943,5.96,26.6913,159.0801,17.6762,"['F-4 @ g-82', 'F-4 @ g-82', 'Na-1 @ a-82', 'Na-1 @ c-82', 'Sr-1 @ b-82', 'Zr-1 @ d-82']",-3.7838
mp-13664,Sr4Ta4O14,4.6404,0.1037,49.7079,4.4641,63.4983,7.8407,2.9294,54.3483,159.2078,9.15,"['O-2 @ a-36', 'O-2 @ a-36', 'O-2 @ a-36', 'O-2 @ a-36', 'O-2 @ a-36', 'O-2 @ a-36', 'O-2 @ a-36', 'Sr-2 @ a-36', 'Sr-2 @ a-36', 'Ta-2 @ a-36', 'Ta-2 @ a-36']",-3.5113
mp-5304,La1Al1O3,4.8927,0.0989,39.6921,2.3624,42.1259,2.1187,3.5755,44.5847,159.4127,2.4588,"['Al-1 @ a-221', 'La-1 @ b-221', 'O-3 @ d-221']",-3.7246
wbm-2-34380,Yb2Hf2O6,4.4768,0.0888,35.3891,1.9797,37.3262,2.2,4.0,39.866,159.4639,2.5398,"['Hf-2 @ a-74', 'O-2 @ e-74', 'O-4 @ g-74', 'Yb-2 @ e-74']",-3.9523
mp-684801,Ca2La2Mg2Ta2O12,4.6324,0.1248,34.0085,2.5492,35.4873,2.9209,4.1304,38.6409,159.6025,3.1537,"['Ca-2 @ a-7', 'La-2 @ a-7', 'Mg-2 @ a-7', 'O-2 @ a-7', 'O-2 @ a-7', 'O-2 @ a-7', 'O-2 @ a-7', 'O-2 @ a-7', 'O-2 @ a-7', 'Ta-2 @ a-7']",-3.5484
wbm-2-10294,Tl2Sn2Cl6,4.5007,0.1155,69.8426,9.3804,54.3435,1.6587,2.15,74.3434,159.8382,19.9999,"['Cl-2 @ c-63', 'Cl-4 @ f-63', 'Sn-2 @ a-63', 'Tl-2 @ c-63']",-1.3729
mp-1216944,Ti1Nb6Tl2O18,6.2811,0.1823,55.3336,3.0377,54.0986,4.2068,2.5982,61.6147,160.0873,7.5161,"['Nb-2 @ c-5', 'Nb-2 @ c-5', 'Nb-2 @ c-5', 'O-2 @ c-5', 'O-2 @ c-5', 'O-2 @ c-5', 'O-2 @ c-5', 'O-2 @ c-5', 'O-2 @ c-5', 'O-2 @ c-5', 'O-2 @ c-5', 'O-2 @ c-5', 'Ti-1 @ a-5', 'Tl-2 @ c-5']",-2.9007
mp-675672,Zr10Sc4O26,5.2844,0.112,38.0449,1.6805,32.0499,1.7277,3.7033,43.3293,160.4615,11.2794,"['O-1 @ a-146', 'O-1 @ a-146', 'O-3 @ b-146', 'O-3 @ b-146', 'O-3 @ b-146', 'O-3 @ b-146', 'O-3 @ b-146', 'O-3 @ b-146', 'O-3 @ b-146', 'O-3 @ b-146', 'Sc-1 @ a-146', 'Sc-3 @ b-146', 'Zr-1 @ a-146', 'Zr-3 @ b-146', 'Zr-3 @ b-146', 'Zr-3 @ b-146']",-3.8175
wbm-3-23311,Rb3Dy1F6,2.1488,0.0701,24.4065,2.1558,9.0771,0.4088,6.05,26.5553,160.6596,17.4782,"['Dy-1 @ a-5', 'F-2 @ c-5', 'F-2 @ c-5', 'F-2 @ c-5', 'Rb-1 @ b-5', 'Rb-2 @ c-5']",-3.5983
mp-561473,Ca4Ta4Al4O20,4.3403,0.094,37.252,2.1112,29.6206,2.9053,3.8659,41.5922,160.7914,11.9716,"['Al-4 @ e-14', 'Ca-4 @ e-14', 'O-4 @ e-14', 'O-4 @ e-14', 'O-4 @ e-14', 'O-4 @ e-14', 'O-4 @ e-14', 'Ta-2 @ a-14', 'Ta-2 @ d-14']",-3.493
mp-27556,Cs8Nb8O24,4.6281,0.1016,43.832,2.3456,49.414,6.3018,3.319,48.4601,160.839,0.9539,"['Cs-4 @ e-14', 'Cs-4 @ e-14', 'Nb-4 @ e-14', 'Nb-4 @ e-14', 'O-4 @ e-14', 'O-4 @ e-14', 'O-4 @ e-14', 'O-4 @ e-14', 'O-4 @ e-14', 'O-4 @ e-14']",-2.8437
mp-541462,Sr2Ta8O22,5.5356,0.1984,39.7219,1.8044,44.3654,2.3411,3.5575,45.2575,161.0037,0.8922,"['O-12 @ i-182', 'O-4 @ f-182', 'O-6 @ g-182', 'Sr-2 @ c-182', 'Ta-2 @ d-182', 'Ta-6 @ g-182']",-3.4442
mp-13055,Ba2La1Ta1O6,4.8209,0.0917,39.9336,1.839,39.3894,4.0329,3.6024,44.7545,161.2237,5.3651,"['Ba-2 @ i-12', 'La-1 @ a-12', 'O-2 @ i-12', 'O-4 @ j-12', 'Ta-1 @ d-12']",-3.5168
mp-15983,Ba4Na2Nb10O30,5.6394,0.1204,59.5478,3.8936,71.4608,5.491,2.4751,65.1872,161.3448,6.2737,"['Ba-4 @ c-100', 'Na-2 @ a-100', 'Nb-2 @ b-100', 'Nb-8 @ d-100', 'O-2 @ b-100', 'O-4 @ c-100', 'O-8 @ d-100', 'O-8 @ d-100', 'O-8 @ d-100']",-3.1307
mp-1192039,Nd6Ta2O14,4.7478,0.0988,42.5987,2.6838,30.5679,2.3262,3.4123,47.3465,161.5604,16.7786,"['Nd-2 @ a-63', 'Nd-4 @ g-63', 'O-2 @ c-63', 'O-4 @ g-63', 'O-8 @ h-63', 'Ta-2 @ b-63']",-3.7512
mp-3079,Ca2Ta8O22,5.488,0.1877,39.7861,1.8091,42.6895,1.9831,3.5694,45.274,161.6011,2.5845,"['Ca-2 @ c-182', 'O-12 @ i-182', 'O-4 @ f-182', 'O-6 @ g-182', 'Ta-2 @ d-182', 'Ta-6 @ g-182']",-3.4393
mp-1227811,Ca2La4Ti5O18,5.3796,0.1376,64.4158,5.7595,37.9351,2.329,2.3161,69.7954,161.6532,31.8604,"['Ca-2 @ c-166', 'La-2 @ c-166', 'La-2 @ c-166', 'O-6 @ h-166', 'O-6 @ h-166', 'O-6 @ h-166', 'Ti-1 @ a-166', 'Ti-2 @ c-166', 'Ti-2 @ c-166']",-3.6557
mp-1211253,La2Ti3Bi2O12,5.5848,0.1312,71.8758,4.6608,51.0039,14.7958,2.0874,77.4606,161.6913,26.4567,"['Bi-2 @ e-139', 'La-2 @ e-139', 'O-2 @ c-139', 'O-2 @ d-139', 'O-2 @ e-139', 'O-2 @ e-139', 'O-4 @ g-139', 'Ti-1 @ a-139', 'Ti-2 @ e-139']",-3.18
mp-5933,Ba6Ti6O18,5.3163,0.1571,88.3651,19.5183,50.7431,4.6666,1.7261,93.6814,161.7035,42.9383,"['Ba-2 @ b-194', 'Ba-4 @ f-194', 'O-12 @ k-194', 'O-6 @ h-194', 'Ti-2 @ a-194', 'Ti-4 @ f-194']",-3.493
mp-1198057,Nb4Bi8O20F4,5.603,0.1212,61.3872,7.0624,53.7556,5.6174,2.4161,66.9903,161.8552,13.2346,"['Bi-4 @ a-29', 'Bi-4 @ a-29', 'F-4 @ a-29', 'Nb-4 @ a-29', 'O-4 @ a-29', 'O-4 @ a-29', 'O-4 @ a-29', 'O-4 @ a-29', 'O-4 @ a-29']",-2.4165
mp-1216103,Y4Ti3Sn1O14,5.2569,0.1364,50.059,1.8084,51.3881,3.1105,2.9302,55.3159,162.0867,3.9278,"['O-2 @ c-166', 'O-6 @ h-166', 'O-6 @ h-166', 'Sn-1 @ a-166', 'Ti-3 @ d-166', 'Y-1 @ b-166', 'Y-3 @ e-166']",-3.5733
wbm-2-34839,Na3Nb1O4,4.158,0.0856,39.5361,4.402,24.4673,4.3722,3.71,43.6941,162.1051,19.2268,"['Na-1 @ a-1', 'Na-1 @ a-1', 'Na-1 @ a-1', 'Nb-1 @ a-1', 'O-1 @ a-1', 'O-1 @ a-1', 'O-1 @ a-1', 'O-1 @ a-1']",-2.4624
wbm-3-36443,Li2Yb1Ta2O7,4.685,0.1037,58.6578,7.054,59.1134,11.8444,2.56,63.3428,162.1577,4.2294,"['Li-2 @ c-44', 'O-1 @ a-44', 'O-2 @ c-44', 'O-2 @ c-44', 'O-2 @ c-44', 'Ta-2 @ c-44', 'Yb-1 @ b-44']",-3.2571
mp-4551,Sr1Hf1O3,4.621,0.1126,38.2915,1.8135,39.6161,3.9063,3.7808,42.9126,162.2439,3.2965,"['Hf-1 @ a-221', 'O-3 @ d-221', 'Sr-1 @ b-221']",-3.7892
mp-997585,La8Al7Ga1O24,4.7318,0.1248,42.1906,11.3001,51.1513,13.0672,3.458,46.9224,162.2576,4.2289,"['Al-1 @ a-221', 'Al-3 @ c-221', 'Al-3 @ d-221', 'Ga-1 @ b-221', 'La-8 @ g-221', 'O-12 @ h-221', 'O-6 @ e-221', 'O-6 @ f-221']",-3.6384
mp-14568,Ba2Mg2F8,2.3863,0.0761,20.9702,2.5509,26.8172,1.9093,6.9487,23.3565,162.297,3.4607,"['Ba-2 @ a-36', 'F-2 @ a-36', 'F-2 @ a-36', 'F-2 @ a-36', 'F-2 @ a-36', 'Mg-2 @ a-36']",-4.0122
mp-1220706,Na1Y1Ti2Si2O10,4.1608,0.1039,50.1794,5.1715,25.6738,1.5532,2.9869,54.3402,162.3088,28.6664,"['Na-1 @ a-5', 'O-1 @ a-5', 'O-1 @ b-5', 'O-2 @ c-5', 'O-2 @ c-5', 'O-2 @ c-5', 'O-2 @ c-5', 'Si-1 @ a-5', 'Si-1 @ b-5', 'Ti-2 @ c-5', 'Y-1 @ b-5']",-3.3994
mp-755392,Li4Sn4P4O16,3.3668,0.1148,38.5861,190.8715,74.0524,105.1028,3.8694,41.9529,162.3324,32.0995,"['Li-4 @ a-33', 'O-4 @ a-33', 'O-4 @ a-33', 'O-4 @ a-33', 'O-4 @ a-33', 'P-4 @ a-33', 'Sn-4 @ a-33']",-2.4058
mp-1223396,K2Nb2W2O12,5.1289,0.1127,47.889,3.6517,71.8957,12.0321,3.0678,53.0179,162.6482,18.8779,"['K-2 @ b-46', 'Nb-2 @ a-46', 'O-2 @ b-46', 'O-2 @ b-46', 'O-4 @ c-46', 'O-4 @ c-46', 'W-2 @ b-46']",-2.6004
mp-541593,Zr4Pb8F32,3.1113,0.0939,28.0001,2.0016,58.6214,4.7971,5.2294,31.1114,162.6942,27.51,"['F-4 @ c-62', 'F-4 @ c-62', 'F-8 @ d-62', 'F-8 @ d-62', 'F-8 @ d-62', 'Pb-4 @ c-62', 'Pb-4 @ c-62', 'Zr-4 @ c-62']",-3.3096
mp-861957,K2Na2Sm2Ta2O10,4.2365,0.109,40.976,4.4156,85.8305,8.0045,3.6006,45.2125,162.7922,40.618,"['K-2 @ a-129', 'Na-2 @ c-129', 'O-2 @ c-129', 'O-8 @ j-129', 'Sm-2 @ b-129', 'Ta-2 @ c-129']",-3.1339
mp-867839,Ta14Bi2O38,5.2584,0.1359,48.5857,2.5215,36.4081,1.7327,3.0334,53.8441,163.3306,17.4359,"['Bi-2 @ c-182', 'O-12 @ i-182', 'O-12 @ i-182', 'O-4 @ f-182', 'O-4 @ f-182', 'O-6 @ g-182', 'Ta-12 @ i-182', 'Ta-2 @ d-182']",-3.2016
mp-1220211,Nd4Zr3Ti1O14,5.2142,0.1213,47.079,2.1243,50.2549,3.4099,3.1241,52.2932,163.3691,2.0383,"['Nd-1 @ a-166', 'Nd-3 @ d-166', 'O-2 @ c-166', 'O-6 @ h-166', 'O-6 @ h-166', 'Ti-1 @ b-166', 'Zr-3 @ e-166']",-3.8116
mp-1223389,K1Na1Ti4Bi2O12,5.7058,0.1518,64.7061,2.1326,51.9775,13.2307,2.3229,70.412,163.56,18.4345,"['Bi-1 @ a-38', 'Bi-1 @ b-38', 'K-1 @ a-38', 'Na-1 @ b-38', 'O-2 @ c-38', 'O-2 @ c-38', 'O-2 @ d-38', 'O-2 @ e-38', 'O-4 @ f-38', 'Ti-4 @ f-38']",-2.8409
mp-562854,Cs2Nb4Bi2O14,5.3671,0.1122,60.4558,1.6785,54.6814,10.7105,2.4862,65.8229,163.6489,11.1415,"['Bi-2 @ a-26', 'Cs-2 @ b-26', 'Nb-4 @ c-26', 'O-2 @ a-26', 'O-4 @ c-26', 'O-4 @ c-26', 'O-4 @ c-26']",-2.6763
mp-1522445,K1Nb4In1O12,6.4205,0.128,85.8681,10.4603,73.1134,7.856,1.7758,92.2886,163.8861,19.1752,"['In-1 @ a-38', 'K-1 @ b-38', 'Nb-4 @ f-38', 'O-2 @ c-38', 'O-2 @ c-38', 'O-2 @ d-38', 'O-2 @ e-38', 'O-4 @ f-38']",-2.7562
mp-3175,Ba2Ti8O18,5.6966,0.1458,54.3483,4.4263,33.1538,2.5484,2.7312,60.0449,163.9947,26.8911,"['Ba-2 @ a-59', 'O-2 @ b-59', 'O-4 @ e-59', 'O-4 @ e-59', 'O-4 @ e-59', 'O-4 @ e-59', 'Ti-4 @ e-59', 'Ti-4 @ e-59']",-3.5234
mp-22006,V2Mo2O10,6.3146,0.1875,84.8056,72.6924,14.4201,1.5894,1.8,91.1202,164.0163,76.7001,"['Mo-2 @ a-85', 'O-2 @ c-85', 'O-8 @ g-85', 'V-2 @ c-85']",-2.2031
wbm-1-42327,K1Ti2Bi1O6,6.5613,0.1509,56.2991,3.7069,48.7105,9.5742,2.61,62.8604,164.0656,14.1499,"['Bi-1 @ a-146', 'K-1 @ a-146', 'O-3 @ b-146', 'O-3 @ b-146', 'Ti-1 @ a-146', 'Ti-1 @ a-146']",-2.8271
mp-1009730,Ca2Sn1,154.3135,91.7549,57.0668,2.2929,142.1721,25.0104,0.7772,211.3803,164.2848,69.2082,"['Ca-2 @ c-225', 'Sn-1 @ a-225']",-0.6173
wbm-1-41006,La2Nb2O8,5.667,0.1383,51.0142,4.3395,48.3591,3.4529,2.9,56.6812,164.3754,8.3221,"['La-2 @ a-36', 'Nb-2 @ a-36', 'O-2 @ a-36', 'O-2 @ a-36', 'O-2 @ a-36', 'O-2 @ a-36']",-3.5214
mp-1216093,Y4Ti1Sn3O14,4.9789,0.1077,52.8866,1.5061,29.6866,1.4009,2.8441,57.8655,164.5753,28.179,"['O-2 @ c-166', 'O-6 @ h-166', 'O-6 @ h-166', 'Sn-3 @ d-166', 'Ti-1 @ a-166', 'Y-1 @ b-166', 'Y-3 @ e-166']",-3.2025
wbm-1-39192,Na4Cl4O12,2.5897,0.0969,27.3397,3.2085,29.129,3.8131,5.5,29.9294,164.6117,0.8004,"['Cl-4 @ c-62', 'Na-4 @ a-62', 'O-4 @ c-62', 'O-8 @ d-62']",-1.2015
mp-1223383,Na4Ca2Nb8Bi4O30,6.0302,0.1334,68.6215,3.3274,63.9146,5.5484,2.207,74.6517,164.7563,10.7371,"['Bi-4 @ b-36', 'Ca-2 @ a-36', 'Na-4 @ b-36', 'Nb-4 @ b-36', 'Nb-4 @ b-36', 'O-2 @ a-36', 'O-4 @ b-36', 'O-4 @ b-36', 'O-4 @ b-36', 'O-4 @ b-36', 'O-4 @ b-36', 'O-4 @ b-36', 'O-4 @ b-36']",-2.7364
wbm-3-23315,Rb3Ho1F6,2.1415,0.0702,25.1139,2.4292,8.9189,0.428,6.06,27.2554,165.1678,18.3365,"['F-2 @ c-5', 'F-2 @ c-5', 'F-2 @ c-5', 'Ho-1 @ a-5', 'Rb-1 @ b-5', 'Rb-2 @ c-5']",-3.6046
mp-1212110,In4Sn8Cl20,4.4272,0.1367,57.393,44.544,64.2501,15.0277,2.6738,61.8202,165.2949,2.4299,"['Cl-4 @ e-14', 'Cl-4 @ e-14', 'Cl-4 @ e-14', 'Cl-4 @ e-14', 'Cl-4 @ e-14', 'In-4 @ e-14', 'Sn-4 @ e-14', 'Sn-4 @ e-14']",-1.319
mp-1207743,Tm2Ta10Ag4O30,5.7378,0.1117,59.4544,2.6983,30.0659,2.1402,2.5375,65.1922,165.4251,35.1263,"['Ag-4 @ g-127', 'O-2 @ d-127', 'O-4 @ h-127', 'O-8 @ i-127', 'O-8 @ j-127', 'O-8 @ j-127', 'Ta-2 @ c-127', 'Ta-8 @ j-127', 'Tm-2 @ a-127']",-3.0007
mp-4387,Sr4Zr4O12,4.8064,0.0999,40.8309,2.356,41.8986,2.3294,3.6257,45.6373,165.4673,3.7388,"['O-4 @ c-62', 'O-8 @ d-62', 'Sr-4 @ c-62', 'Zr-4 @ a-62']",-3.6714
mp-1220179,Nd2Ti2Nb2Bi4O18,6.0041,0.1736,57.9081,3.2818,36.5622,4.0231,2.5926,63.9123,165.6989,27.35,"['Bi-2 @ a-4', 'Bi-2 @ a-4', 'Nb-2 @ a-4', 'Nd-2 @ a-4', 'O-2 @ a-4', 'O-2 @ a-4', 'O-2 @ a-4', 'O-2 @ a-4', 'O-2 @ a-4', 'O-2 @ a-4', 'O-2 @ a-4', 'O-2 @ a-4', 'O-2 @ a-4', 'Ti-2 @ a-4']",-2.8642
mp-1210770,Lu2Ta10Ag4O30,5.7509,0.1093,58.5537,2.7289,30.3304,2.154,2.5774,64.3046,165.7387,33.9742,"['Ag-4 @ g-127', 'Lu-2 @ a-127', 'O-2 @ d-127', 'O-4 @ h-127', 'O-8 @ i-127', 'O-8 @ j-127', 'O-8 @ j-127', 'Ta-2 @ c-127', 'Ta-8 @ j-127']",-2.9912
wbm-4-26780,Yb2Ta1In1O6,4.346,0.0849,40.6026,3.9109,34.3407,3.4384,3.69,44.9486,165.8604,10.608,"['In-1 @ a-12', 'O-2 @ i-12', 'O-4 @ j-12', 'Ta-1 @ d-12', 'Yb-2 @ i-12']",-3.244
mp-560088,Cs2Li3F5,2.2739,0.0764,27.3004,5.6142,7.4498,0.3966,5.6212,29.5743,166.2432,22.1245,"['Cs-1 @ a-38', 'Cs-1 @ b-38', 'F-1 @ a-38', 'F-1 @ a-38', 'F-1 @ a-38', 'F-1 @ b-38', 'F-1 @ b-38', 'Li-1 @ a-38', 'Li-1 @ a-38', 'Li-1 @ b-38']",-2.964
mp-753864,Sr2Li2Nb4O13,4.9836,0.0863,111.1428,50.1321,109.2823,16.8026,1.4338,116.1264,166.5021,6.8441,"['Li-2 @ d-139', 'Nb-2 @ e-139', 'Nb-2 @ e-139', 'O-1 @ a-139', 'O-2 @ e-139', 'O-2 @ e-139', 'O-4 @ g-139', 'O-4 @ g-139', 'Sr-2 @ e-139']",-3.0988
mp-769280,Ca5Ta4O15,4.6321,0.1019,51.4616,3.5768,82.1505,15.0671,2.9774,56.0937,167.0134,26.0568,"['Ca-1 @ a-164', 'Ca-2 @ d-164', 'Ca-2 @ d-164', 'O-3 @ e-164', 'O-6 @ i-164', 'O-6 @ i-164', 'Ta-2 @ c-164', 'Ta-2 @ d-164']",-3.4148
mp-22681,Pb4W2O10,5.2399,0.1013,48.7481,3.1728,41.1112,13.6874,3.0994,53.9879,167.3302,12.8767,"['O-2 @ g-12', 'O-2 @ i-12', 'O-2 @ i-12', 'O-4 @ j-12', 'Pb-2 @ i-12', 'Pb-2 @ i-12', 'W-2 @ i-12']",-1.8737
wbm-1-41981,Ba2La1Ta1O6,4.6361,0.0971,41.7274,2.9386,41.2808,3.8907,3.61,46.3634,167.372,5.0826,"['Ba-2 @ d-87', 'La-1 @ a-87', 'O-2 @ e-87', 'O-4 @ h-87', 'Ta-1 @ b-87']",-3.5143
mp-1213131,Er2Ta10Ag4O30,5.7502,0.1118,60.1433,2.8123,30.2193,2.1005,2.5414,65.8935,167.4618,35.6743,"['Ag-4 @ g-127', 'Er-2 @ a-127', 'O-2 @ d-127', 'O-4 @ h-127', 'O-8 @ i-127', 'O-8 @ j-127', 'O-8 @ j-127', 'Ta-2 @ c-127', 'Ta-8 @ j-127']",-3.0041
mp-1101326,Ta6Ag2O16,5.2845,0.105,74.7551,3.5155,108.6665,38.7683,2.0967,80.0396,167.819,28.6269,"['Ag-2 @ a-72', 'O-4 @ j-72', 'O-4 @ j-72', 'O-8 @ k-72', 'Ta-2 @ b-72', 'Ta-4 @ j-72']",-2.9374
mp-755352,Li4Hf2O6,4.0654,0.0892,33.9069,1.3419,34.2206,2.223,4.4196,37.9723,167.8224,3.7517,"['Hf-2 @ e-15', 'Li-2 @ e-15', 'Li-2 @ e-15', 'O-2 @ c-15', 'O-4 @ f-15']",-3.1755
mp-684815,Ba4La2Ti3Nb2O18,5.2932,0.1408,71.5467,7.0835,44.4947,3.5904,2.1846,76.8399,167.8644,32.3452,"['Ba-2 @ c-166', 'Ba-2 @ c-166', 'La-2 @ c-166', 'Nb-2 @ c-166', 'O-6 @ h-166', 'O-6 @ h-166', 'O-6 @ h-166', 'Ti-1 @ a-166', 'Ti-2 @ c-166']",-3.4745
wbm-1-24964,Sr1Li1F3,2.27,0.0751,21.0676,6.9152,13.4498,0.8547,7.2,23.3377,168.0312,9.8878,"['F-3 @ c-221', 'Li-1 @ b-221', 'Sr-1 @ a-221']",-3.7401
mp-1226936,Cd4Mo1W3O16,4.7242,0.1063,55.51,6.2551,39.5309,7.7147,2.7918,60.2342,168.1618,20.7033,"['Cd-2 @ c-5', 'Cd-2 @ c-5', 'Mo-1 @ a-5', 'O-2 @ c-5', 'O-2 @ c-5', 'O-2 @ c-5', 'O-2 @ c-5', 'O-2 @ c-5', 'O-2 @ c-5', 'O-2 @ c-5', 'O-2 @ c-5', 'W-1 @ a-5', 'W-1 @ b-5', 'W-1 @ b-5']",-1.9651
mp-3323,Sr1Zr1O3,5.0218,0.1248,42.0613,1.508,79.599,12.6296,3.5794,47.0831,168.5293,32.5159,"['O-3 @ c-221', 'Sr-1 @ a-221', 'Zr-1 @ b-221']",-3.6165
mp-752686,Sm6Ta2O14,4.8653,0.1145,44.3877,2.359,37.5696,3.4289,3.4265,49.253,168.7653,11.6834,"['O-2 @ a-20', 'O-2 @ a-20', 'O-2 @ a-20', 'O-4 @ c-20', 'O-4 @ c-20', 'Sm-2 @ b-20', 'Sm-4 @ c-20', 'Ta-2 @ b-20']",-3.803
mp-8398,Cs1Yb1F3,2.2361,0.0716,20.4844,2.9488,37.9652,9.3061,7.431,22.7205,168.836,15.2447,"['Cs-1 @ a-221', 'F-3 @ c-221', 'Yb-1 @ b-221']",-3.9079
wbm-2-16084,Cs1Rb2Tm1F6,2.2678,0.0748,26.2713,2.6593,8.9484,0.5094,5.92,28.5391,168.9513,19.5906,"['Cs-1 @ a-2', 'F-2 @ i-2', 'F-2 @ i-2', 'F-2 @ i-2', 'Rb-2 @ i-2', 'Tm-1 @ h-2']",-3.61
mp-1220266,Nd3Ho1Zr4O14,5.1468,0.1148,49.405,2.1152,47.4537,3.6215,3.1138,54.5518,169.8634,7.0981,"['Ho-1 @ a-166', 'Nd-3 @ d-166', 'O-2 @ c-166', 'O-6 @ h-166', 'O-6 @ h-166', 'Zr-1 @ b-166', 'Zr-3 @ e-166']",-3.856
mp-781861,Nb8Cd4O24,5.6313,0.1198,44.0006,2.3038,61.9029,7.3794,3.4237,49.6319,169.9247,12.271,"['Cd-4 @ c-60', 'Nb-8 @ d-60', 'O-8 @ d-60', 'O-8 @ d-60', 'O-8 @ d-60']",-2.7268
mp-1227081,Ca1Th1V2O8,4.0927,0.1644,51.5082,3.1634,35.1703,2.136,3.0566,55.6009,169.9496,20.4306,"['Ca-1 @ a-119', 'O-4 @ i-119', 'O-4 @ i-119', 'Th-1 @ c-119', 'V-1 @ b-119', 'V-1 @ d-119']",-3.1737
mp-1222804,La1Y3Ti4O14,5.2651,0.1425,55.1383,2.6538,60.0165,2.4335,2.8136,60.4034,169.951,0.3869,"['La-1 @ a-166', 'O-2 @ c-166', 'O-6 @ h-166', 'O-6 @ h-166', 'Ti-1 @ b-166', 'Ti-3 @ e-166', 'Y-3 @ d-166']",-3.7558
mp-1216832,Ti1Nb1Bi3O9,6.8041,0.1321,88.3428,11.6538,76.9116,38.4683,1.7884,95.1469,170.1608,18.2353,"['Bi-1 @ a-107', 'Bi-1 @ a-107', 'Bi-1 @ a-107', 'Nb-1 @ a-107', 'O-1 @ a-107', 'O-1 @ a-107', 'O-1 @ a-107', 'O-2 @ b-107', 'O-2 @ b-107', 'O-2 @ b-107', 'Ti-1 @ a-107']",-2.3771
wbm-2-15546,Cs1Tl2Ga1F6,2.864,0.0892,33.4261,3.9241,23.3143,3.2046,4.69,36.2901,170.2008,12.9759,"['Cs-1 @ a-225', 'F-6 @ e-225', 'Ga-1 @ b-225', 'Tl-2 @ c-225']",-2.5867
mp-754826,Cs2Sc2O4,3.574,0.0824,53.9977,3.432,47.5041,5.4911,2.958,57.5717,170.2972,10.0676,"['Cs-2 @ a-227', 'O-4 @ d-227', 'Sc-2 @ b-227']",-2.9875
wbm-1-14993,K4Yb4F12,2.0881,0.0601,23.5234,3.5995,11.2811,0.6086,6.65,25.6115,170.3162,14.3303,"['F-4 @ c-62', 'F-8 @ d-62', 'K-4 @ c-62', 'Yb-4 @ a-62']",-3.9149
wbm-1-57692,Te2Pb2,16.975,0.8747,145.464,23.6582,189.4318,88.1835,1.05,162.439,170.561,26.9928,"['Pb-2 @ e-139', 'Te-2 @ e-139']",-0.329
mp-35799,Hf4Bi4O14,5.5488,0.1496,52.0784,2.7383,37.7456,5.948,2.9613,57.6272,170.6515,19.8816,"['Bi-2 @ c-5', 'Bi-2 @ c-5', 'Hf-2 @ c-5', 'Hf-2 @ c-5', 'O-1 @ a-5', 'O-1 @ a-5', 'O-1 @ a-5', 'O-1 @ b-5', 'O-1 @ b-5', 'O-1 @ b-5', 'O-2 @ c-5', 'O-2 @ c-5', 'O-2 @ c-5', 'O-2 @ c-5']",-2.9522
mp-1229287,Bi2Pb1F8,3.3491,0.0979,41.3275,5.2142,34.545,4.5852,3.8259,44.6766,170.9282,10.1316,"['Bi-2 @ e-139', 'F-2 @ d-139', 'F-2 @ e-139', 'F-4 @ g-139', 'Pb-1 @ a-139']",-2.5774
mp-776386,Zr8O16,4.955,0.1102,42.3662,2.2321,25.192,0.8827,3.6134,47.3212,170.9904,22.1292,"['O-4 @ c-62', 'O-4 @ c-62', 'O-4 @ c-62', 'O-4 @ c-62', 'Zr-4 @ c-62', 'Zr-4 @ c-62']",-3.7355
mp-613652,Pb2Cl2F2,4.2367,0.0837,43.0404,8.9603,70.3102,5.043,3.6236,47.2771,171.3131,23.0332,"['Cl-2 @ a-129', 'F-2 @ c-129', 'Pb-2 @ c-129']",-1.9008
mp-1219566,Rb4Ti4Nb4O20,4.7979,0.0968,58.7134,8.9916,39.3382,6.0936,2.6976,63.5113,171.3282,24.1732,"['Nb-4 @ c-62', 'O-4 @ c-62', 'O-4 @ c-62', 'O-4 @ c-62', 'O-4 @ c-62', 'O-4 @ c-62', 'Rb-4 @ c-62', 'Ti-4 @ c-62']",-3.1148
mp-6548,K2La2Ti3O10,5.0137,0.1151,78.903,19.6568,75.4025,9.0975,2.0419,83.9167,171.3496,8.5142,"['K-2 @ e-139', 'La-2 @ e-139', 'O-2 @ c-139', 'O-2 @ e-139', 'O-2 @ e-139', 'O-4 @ g-139', 'Ti-1 @ a-139', 'Ti-2 @ e-139']",-3.4432
mp-20006,Zn4Pb8F24,3.3029,0.095,40.4928,9.0863,25.8008,2.2362,3.9144,43.7957,171.434,17.9949,"['F-4 @ a-138', 'F-4 @ b-138', 'F-4 @ e-138', 'F-4 @ e-138', 'F-8 @ i-138', 'Pb-8 @ i-138', 'Zn-4 @ c-138']",-2.6553
wbm-1-25816,Li2Ta2O6,4.6587,0.1113,48.8116,6.3055,131.3775,38.2708,3.21,53.4703,171.6397,77.9072,"['Li-2 @ a-167', 'O-6 @ e-167', 'Ta-2 @ b-167']",-3.1207
mp-10402,Ti1Tl2F6,3.1172,0.0988,40.7795,2.8292,39.875,3.62,3.9155,43.8968,171.8778,4.0218,"['F-6 @ i-164', 'Ti-1 @ a-164', 'Tl-2 @ d-164']",-3.0772
wbm-3-51686,Yb2Zr2O6,4.788,0.0905,45.7809,4.0064,48.8398,2.6415,3.4,50.5688,171.9341,1.729,"['O-2 @ e-74', 'O-4 @ f-74', 'Yb-2 @ e-74', 'Zr-2 @ c-74']",-3.7942
mp-1219101,Sm2Ti2Nb2Bi4O18,5.9838,0.1743,57.214,3.1979,36.2449,3.9543,2.722,63.1978,172.0243,26.9528,"['Bi-2 @ a-4', 'Bi-2 @ a-4', 'Nb-2 @ a-4', 'O-2 @ a-4', 'O-2 @ a-4', 'O-2 @ a-4', 'O-2 @ a-4', 'O-2 @ a-4', 'O-2 @ a-4', 'O-2 @ a-4', 'O-2 @ a-4', 'O-2 @ a-4', 'Sm-2 @ a-4', 'Ti-2 @ a-4']",-2.8715
mp-1212958,Dy2Ta10Ag4O30,5.752,0.1124,61.4121,2.9013,30.2237,2.0046,2.5613,67.164,172.0272,36.9403,"['Ag-4 @ g-127', 'Dy-2 @ a-127', 'O-2 @ d-127', 'O-4 @ h-127', 'O-8 @ i-127', 'O-8 @ j-127', 'O-8 @ j-127', 'Ta-2 @ c-127', 'Ta-8 @ j-127']",-3.011
mp-1225383,Dy4Y2Ta2O14,4.7482,0.1324,46.1264,3.2748,43.7352,2.8422,3.3865,50.8746,172.2869,7.1394,"['Dy-4 @ g-63', 'O-2 @ c-63', 'O-2 @ c-63', 'O-2 @ c-63', 'O-8 @ h-63', 'Ta-2 @ a-63', 'Y-2 @ b-63']",-3.8632
mp-1212151,Ho2Ta10Ag4O30,5.7539,0.1118,60.2668,2.7732,30.3291,2.0407,2.6125,66.0207,172.479,35.6916,"['Ag-4 @ g-127', 'Ho-2 @ a-127', 'O-2 @ d-127', 'O-4 @ h-127', 'O-8 @ i-127', 'O-8 @ j-127', 'O-8 @ j-127', 'Ta-2 @ c-127', 'Ta-8 @ j-127']",-3.0066
mp-776661,Nb1V3O10,5.6304,0.2489,98.4328,83.2729,153.9445,8.5481,1.6575,104.0632,172.4847,49.8814,"['Nb-1 @ a-115', 'O-2 @ g-115', 'O-4 @ j-115', 'O-4 @ k-115', 'V-1 @ b-115', 'V-2 @ g-115']",-2.4273
mp-1208376,Tb2Ta10Ag4O30,5.7524,0.1144,62.0731,2.9216,30.2391,1.9828,2.5449,67.8255,172.609,37.5864,"['Ag-4 @ g-127', 'O-2 @ d-127', 'O-4 @ h-127', 'O-8 @ i-127', 'O-8 @ j-127', 'O-8 @ j-127', 'Ta-2 @ c-127', 'Ta-8 @ j-127', 'Tb-2 @ a-127']",-3.0145
wbm-1-37674,Bi2S1O2,10.8668,0.4321,197.3196,32.023,232.1662,53.8982,0.83,208.1864,172.7947,23.9797,"['Bi-2 @ e-139', 'O-2 @ d-139', 'S-1 @ a-139']",-1.3737