material_id,formula,diel_elec_wren,diel_elec_ale,diel_ionic_wren,diel_ionic_ale,diel_total_wren,diel_total_ale,bandgap_pbe,diel_total_wren_indi,fom_wren,ae_indi_direct,wyckoff,e_form
mp-14676,Nd2Ta14O38,5.7284,0.1412,39.0626,2.1614,44.1174,1.4136,3.174,44.7909,142.1665,0.6736,"['Nd-2 @ a-188', 'O-12 @ l-188', 'O-12 @ l-188', 'O-4 @ g-188', 'O-4 @ h-188', 'O-6 @ k-188', 'Ta-12 @ l-188', 'Ta-2 @ c-188']",-3.432
wbm-1-43815,Ba2O2,4.3127,0.0833,64.0644,14.2694,64.1366,3.67,2.08,68.3771,142.2244,4.2405,"['Ba-2 @ a-225', 'O-2 @ b-225']",-2.8309
mp-1219154,Sm4Sc2Nb2O14,5.4988,0.1391,50.4641,5.4984,82.6123,17.205,2.5417,55.9629,142.241,26.6494,"['Nb-2 @ a-74', 'O-2 @ e-74', 'O-2 @ e-74', 'O-2 @ e-74', 'O-8 @ j-74', 'Sc-2 @ c-74', 'Sm-2 @ b-74', 'Sm-2 @ d-74']",-3.6891
wbm-1-10614,Tl2Ge1Cl6,3.457,0.0828,69.1333,7.1885,76.4144,6.3755,1.96,72.5903,142.2771,3.8241,"['Cl-6 @ e-225', 'Ge-1 @ a-225', 'Tl-2 @ c-225']",-1.3169
mp-14532,Na2Ta6O16,4.9863,0.0929,47.3058,2.2505,44.0376,3.4003,2.7218,52.2921,142.3286,8.2545,"['Na-2 @ a-72', 'O-4 @ j-72', 'O-4 @ j-72', 'O-8 @ k-72', 'Ta-2 @ b-72', 'Ta-4 @ j-72']",-3.2193
mp-1228110,Ba6Ti2Zn2W2O18,4.7085,0.1055,41.3519,2.0667,57.1699,3.8928,3.0906,46.0604,142.3544,11.1094,"['Ba-2 @ a-186', 'Ba-2 @ b-186', 'Ba-2 @ b-186', 'O-6 @ c-186', 'O-6 @ c-186', 'O-6 @ c-186', 'Ti-2 @ b-186', 'W-2 @ b-186', 'Zn-2 @ a-186']",-2.9327
wbm-1-39458,Rb8Nb8O24,4.8603,0.1034,38.4178,1.885,39.294,4.2746,3.29,43.2781,142.3848,3.984,"['Nb-4 @ e-14', 'Nb-4 @ e-14', 'O-4 @ e-14', 'O-4 @ e-14', 'O-4 @ e-14', 'O-4 @ e-14', 'O-4 @ e-14', 'O-4 @ e-14', 'Rb-4 @ e-14', 'Rb-4 @ e-14']",-2.8489
mp-1208776,Sr4Sc2Ta2O12,4.9075,0.1014,36.3773,2.1673,34.2948,2.1245,3.4492,41.2848,142.3997,6.9901,"['O-4 @ e-14', 'O-4 @ e-14', 'O-4 @ e-14', 'Sc-2 @ a-14', 'Sr-4 @ e-14', 'Ta-2 @ d-14']",-3.6317
mp-772151,Li4Ti8O18,5.3664,0.1758,43.8401,3.2674,39.2823,3.1657,2.8944,49.2064,142.4231,9.9241,"['Li-4 @ c-165', 'O-12 @ g-165', 'O-6 @ f-165', 'Ti-4 @ d-165', 'Ti-4 @ d-165']",-3.2934
mp-773103,Er2Ta14O38,5.678,0.142,39.0817,1.9364,43.6614,1.068,3.184,44.7597,142.5149,1.0983,"['Er-2 @ a-188', 'O-12 @ l-188', 'O-12 @ l-188', 'O-4 @ g-188', 'O-4 @ h-188', 'O-6 @ k-188', 'Ta-12 @ l-188', 'Ta-2 @ c-188']",-3.4277
mp-614456,He1,3.3592,0.1717,4.6071,0.3619,6.5405,0.2439,17.9023,7.9662,142.6141,1.4257,['He-1 @ a-225'],0.0083
mp-769252,Sr6Ta4O16,4.6304,0.0949,30.2948,1.1091,33.2636,2.9711,4.0851,34.9252,142.6729,1.6616,"['O-4 @ f-15', 'O-4 @ f-15', 'O-4 @ f-15', 'O-4 @ f-15', 'Sr-2 @ e-15', 'Sr-4 @ f-15', 'Ta-4 @ f-15']",-3.4108
mp-1204933,K4La2Ta10O30,5.2679,0.0962,49.87,5.2846,30.2441,1.2538,2.5879,55.1379,142.6913,24.8938,"['K-4 @ g-127', 'La-2 @ a-127', 'O-2 @ d-127', 'O-4 @ h-127', 'O-8 @ i-127', 'O-8 @ j-127', 'O-8 @ j-127', 'Ta-2 @ c-127', 'Ta-8 @ j-127']",-3.3794
mp-779729,Na8Ti8O20,4.8093,0.3377,32.6896,3.6665,29.3856,4.7674,3.8076,37.4989,142.7808,8.1133,"['Na-4 @ a-33', 'Na-4 @ a-33', 'O-4 @ a-33', 'O-4 @ a-33', 'O-4 @ a-33', 'O-4 @ a-33', 'O-4 @ a-33', 'Ti-4 @ a-33', 'Ti-4 @ a-33']",-3.0106
mp-13019,Na2La4Ta2O12,4.5707,0.1086,31.444,1.6955,25.8109,1.4354,3.9652,36.0146,142.8052,10.2037,"['La-4 @ e-14', 'Na-2 @ a-14', 'O-4 @ e-14', 'O-4 @ e-14', 'O-4 @ e-14', 'Ta-2 @ d-14']",-3.5168
mp-780049,Lu2Ta14O38,5.6689,0.1409,38.9374,1.9184,43.4662,0.9958,3.2023,44.6063,142.8428,1.1401,"['Lu-2 @ a-188', 'O-12 @ l-188', 'O-12 @ l-188', 'O-4 @ g-188', 'O-4 @ h-188', 'O-6 @ k-188', 'Ta-12 @ l-188', 'Ta-2 @ c-188']",-3.4217
wbm-1-43816,Ba4O4,4.3127,0.0833,64.0644,14.2694,64.1366,3.67,2.09,68.3771,142.9082,4.2405,"['Ba-4 @ a-225', 'O-4 @ b-225']",-2.8309
mp-1218203,Sr2La2Mg2Ta2O12,4.5714,0.1255,30.6132,2.288,31.9045,2.3701,4.0675,35.1845,143.113,3.28,"['La-2 @ a-7', 'Mg-2 @ a-7', 'O-2 @ a-7', 'O-2 @ a-7', 'O-2 @ a-7', 'O-2 @ a-7', 'O-2 @ a-7', 'O-2 @ a-7', 'Sr-2 @ a-7', 'Ta-2 @ a-7']",-3.5436
mp-757450,Sc4Ge4O14,4.134,0.1085,34.6769,3.6653,31.9067,2.7683,3.6886,38.811,143.1581,6.9042,"['Ge-4 @ c-227', 'O-12 @ f-227', 'O-2 @ b-227', 'Sc-4 @ d-227']",-2.9643
mp-1519971,Sr1Ca1Nb4O12,6.6302,0.1119,77.9187,16.1301,70.7262,10.8913,1.694,84.5488,143.2257,13.8226,"['Ca-1 @ a-38', 'Nb-4 @ f-38', 'O-2 @ c-38', 'O-2 @ c-38', 'O-2 @ d-38', 'O-2 @ e-38', 'O-4 @ f-38', 'Sr-1 @ b-38']",-3.1675
mp-6119,Na2Nd2Ti3O10,5.251,0.1196,64.9443,12.5847,89.63,20.8363,2.0458,70.1953,143.6055,19.4348,"['Na-2 @ e-139', 'Nd-2 @ e-139', 'O-2 @ c-139', 'O-2 @ e-139', 'O-2 @ e-139', 'O-4 @ g-139', 'Ti-1 @ a-139', 'Ti-2 @ e-139']",-3.3706
mp-559756,Pr4Sc4O12,5.0489,0.105,28.6614,1.24,31.2969,1.3428,4.2605,33.7102,143.6225,2.4134,"['O-4 @ c-62', 'O-8 @ d-62', 'Pr-4 @ c-62', 'Sc-4 @ a-62']",-3.8906
wbm-1-16658,Sn4Br4F4,4.5368,0.1446,41.9511,4.2566,45.9904,2.4507,3.09,46.488,143.6478,0.4976,"['Br-4 @ c-62', 'F-4 @ c-62', 'Sn-4 @ c-62']",-1.6921
mp-1223063,La2Ti3Zn1O10,5.2002,0.1242,64.8693,10.122,106.5551,22.6751,2.0505,70.0695,143.6775,36.4856,"['La-2 @ e-119', 'O-2 @ e-119', 'O-2 @ e-119', 'O-2 @ f-119', 'O-2 @ f-119', 'O-2 @ f-119', 'Ti-1 @ a-119', 'Ti-2 @ e-119', 'Zn-1 @ c-119']",-3.4432
wbm-3-53050,Ba2Ta1Tl1O6,4.8394,0.0922,63.2782,2.3226,36.3855,4.744,2.11,68.1176,143.7282,31.7321,"['Ba-2 @ d-87', 'O-2 @ e-87', 'O-4 @ h-87', 'Ta-1 @ a-87', 'Tl-1 @ b-87']",-2.829
mp-1208058,Tl2Bi6F20,3.5658,0.124,28.8225,1.3054,30.0641,2.105,4.44,32.3882,143.8038,2.3242,"['Bi-6 @ e-225', 'F-12 @ h-225', 'F-8 @ f-225', 'Tl-2 @ c-225']",-2.7097
mp-558294,Li18Ta6O24,3.8435,0.0995,28.0182,2.0588,33.9345,4.0717,4.5167,31.8617,143.9095,2.0729,"['Li-2 @ e-13', 'Li-2 @ e-13', 'Li-2 @ f-13', 'Li-4 @ g-13', 'Li-4 @ g-13', 'Li-4 @ g-13', 'O-4 @ g-13', 'O-4 @ g-13', 'O-4 @ g-13', 'O-4 @ g-13', 'O-4 @ g-13', 'O-4 @ g-13', 'Ta-2 @ f-13', 'Ta-4 @ g-13']",-2.8582
mp-1541522,Bi2P2O8,4.2855,0.0963,31.4319,1.483,36.5043,3.0363,4.0348,35.7174,144.1124,0.7869,"['Bi-2 @ c-63', 'O-4 @ f-63', 'O-4 @ g-63', 'P-2 @ c-63']",-2.4225
mp-695512,Na6La2Ti4Nb4O24,6.0438,0.2281,77.5986,10.8577,75.6761,9.5552,1.7231,83.6425,144.1244,7.9664,"['La-2 @ e-13', 'Na-2 @ e-13', 'Na-2 @ f-13', 'Na-2 @ f-13', 'Nb-2 @ a-13', 'Nb-2 @ b-13', 'O-4 @ g-13', 'O-4 @ g-13', 'O-4 @ g-13', 'O-4 @ g-13', 'O-4 @ g-13', 'O-4 @ g-13', 'Ti-2 @ c-13', 'Ti-2 @ d-13']",-3.1384
mp-1227140,Ca2Sm2Mg2Nb2O12,4.9829,0.1342,35.254,2.0314,34.0756,2.5988,3.582,40.2369,144.1287,6.1613,"['Ca-2 @ a-7', 'Mg-2 @ a-7', 'Nb-2 @ a-7', 'O-2 @ a-7', 'O-2 @ a-7', 'O-2 @ a-7', 'O-2 @ a-7', 'O-2 @ a-7', 'O-2 @ a-7', 'Sm-2 @ a-7']",-3.4176
wbm-2-18891,Ga2Pb2Br6,5.6873,0.1202,53.6266,7.815,111.229,8.3267,2.43,59.3139,144.1327,51.9152,"['Br-2 @ c-63', 'Br-4 @ f-63', 'Ga-2 @ c-63', 'Pb-2 @ a-63']",-0.77
mp-998615,Ca2Tl2F6,2.7707,0.1126,28.254,2.1933,28.3466,2.0577,4.6512,31.0247,144.3019,2.6781,"['Ca-2 @ a-161', 'F-6 @ b-161', 'Tl-2 @ a-161']",-3.3274
wbm-3-23056,Mn1Pb2F6,3.2333,0.0896,33.687,1.9413,37.1377,1.861,3.91,36.9203,144.3585,0.2173,"['F-6 @ g-147', 'Mn-1 @ a-147', 'Pb-2 @ d-147']",-2.7569
mp-559122,W4O12,6.4315,0.2604,108.5276,64.2969,103.0982,24.2955,1.256,114.9591,144.3887,11.8609,"['O-4 @ e-113', 'O-8 @ f-113', 'W-4 @ e-113']",-2.174
mp-22410,Pb2W2O8,4.9975,0.0995,34.9295,2.3305,33.7769,1.3877,3.6169,39.9271,144.4122,6.1501,"['O-8 @ f-88', 'Pb-2 @ a-88', 'W-2 @ b-88']",-1.999
mp-17715,Sr4Ta8O24,5.3196,0.1017,39.4035,1.9149,36.3089,1.601,3.2307,44.7231,144.4869,8.4142,"['O-4 @ c-62', 'O-4 @ c-62', 'O-8 @ d-62', 'O-8 @ d-62', 'Sr-4 @ c-62', 'Ta-8 @ d-62']",-3.5001
mp-1101073,Ti1Zn1Bi2O6,6.39,0.1451,40.6542,4.4236,23.1737,1.711,3.0725,47.0442,144.5433,23.8705,"['Bi-2 @ c-38', 'O-2 @ c-38', 'O-2 @ d-38', 'O-2 @ e-38', 'Ti-1 @ a-38', 'Zn-1 @ b-38']",-2.2073
mp-1194523,Li8Ca4Ta8O28,4.8709,0.0936,46.5267,3.4034,67.1613,16.946,2.8142,51.3976,144.643,15.7638,"['Ca-4 @ c-62', 'Li-8 @ d-62', 'O-4 @ c-62', 'O-8 @ d-62', 'O-8 @ d-62', 'O-8 @ d-62', 'Ta-8 @ d-62']",-3.2187
mp-1220499,Nb4Pb3O13,6.4978,0.1372,47.3001,4.4464,29.5311,1.3976,2.6922,53.7979,144.8347,24.2668,"['Nb-1 @ a-160', 'Nb-3 @ b-160', 'O-1 @ a-160', 'O-3 @ b-160', 'O-3 @ b-160', 'O-3 @ b-160', 'O-3 @ b-160', 'Pb-3 @ b-160']",-2.637
mp-10401,Tl2Sn1F6,2.9902,0.0979,29.3161,2.6585,30.8109,1.9603,4.4844,32.3063,144.8744,1.4954,"['F-6 @ i-164', 'Sn-1 @ a-164', 'Tl-2 @ d-164']",-2.5703
mp-15492,Dy2Ta14O38,5.6954,0.142,39.2244,1.9846,43.764,1.1148,3.2269,44.9198,144.9517,1.1558,"['Dy-2 @ a-188', 'O-12 @ l-188', 'O-12 @ l-188', 'O-4 @ g-188', 'O-4 @ h-188', 'O-6 @ k-188', 'Ta-12 @ l-188', 'Ta-2 @ c-188']",-3.4311
mp-1244573,Ta4O10,5.4914,0.1193,31.7568,1.5722,34.5111,2.3322,3.895,37.2483,145.082,2.7372,"['O-2 @ c-63', 'O-4 @ f-63', 'O-4 @ f-63', 'Ta-4 @ f-63']",-3.1331
wbm-1-25935,Li1Pr1Nb2O7,4.882,0.0963,108.4749,133.9832,145.3638,154.2108,1.28,113.3569,145.0969,32.0069,"['Li-1 @ a-119', 'Nb-2 @ f-119', 'O-1 @ c-119', 'O-2 @ e-119', 'O-2 @ e-119', 'O-2 @ f-119', 'Pr-1 @ d-119']",-3.1485
mp-3378,Sr4Hf4O12,4.4991,0.0982,30.2405,1.6764,30.2573,1.4346,4.1772,34.7395,145.114,4.4822,"['Hf-4 @ a-62', 'O-4 @ c-62', 'O-8 @ d-62', 'Sr-4 @ c-62']",-3.8221
wbm-1-42626,Ba2Nb1Bi1O6,5.8364,0.1085,64.9691,5.7826,60.4096,10.1453,2.05,70.8055,145.1512,10.3958,"['Ba-2 @ i-12', 'Bi-1 @ a-12', 'Nb-1 @ d-12', 'O-2 @ i-12', 'O-4 @ j-12']",-2.8457
mp-615138,Mn4F8,2.6808,0.0871,41.4818,3.6721,41.7947,4.8302,3.2872,44.1626,145.1714,2.3679,"['F-4 @ n-111', 'F-4 @ n-111', 'Mn-1 @ a-111', 'Mn-1 @ d-111', 'Mn-2 @ f-111']",-2.9375
mp-31117,Nd4Sc4O12,5.0399,0.1032,28.7121,1.2756,30.9851,1.3324,4.3025,33.7521,145.2182,2.767,"['Nd-4 @ c-62', 'O-4 @ c-62', 'O-8 @ d-62', 'Sc-4 @ a-62']",-3.9056
mp-1227477,Ca4La2Ta2O12,4.6041,0.1332,31.6363,2.0417,34.0149,2.4503,4.0074,36.2404,145.2298,2.2255,"['Ca-2 @ a-7', 'Ca-2 @ a-7', 'La-2 @ a-7', 'O-2 @ a-7', 'O-2 @ a-7', 'O-2 @ a-7', 'O-2 @ a-7', 'O-2 @ a-7', 'O-2 @ a-7', 'Ta-2 @ a-7']",-3.6021
wbm-2-15550,Rb1Tl2Ga1F6,2.8335,0.0897,27.6488,2.7191,20.8838,3.0581,4.77,30.4822,145.4003,9.5984,"['F-6 @ e-225', 'Ga-1 @ a-225', 'Rb-1 @ b-225', 'Tl-2 @ c-225']",-2.6283
mp-752515,Y2Ta6O18,5.8136,0.1183,39.4305,1.5791,39.6222,1.6111,3.2141,45.2441,145.4189,5.6218,"['O-2 @ e-11', 'O-2 @ e-11', 'O-2 @ e-11', 'O-4 @ f-11', 'O-4 @ f-11', 'O-4 @ f-11', 'Ta-2 @ a-11', 'Ta-4 @ f-11', 'Y-2 @ e-11']",-3.5233
mp-559052,Li2Nb6Bi8O28,5.932,0.1349,48.6535,4.1022,38.3811,2.5909,2.6654,54.5855,145.4921,16.2044,"['Bi-4 @ f-15', 'Bi-4 @ f-15', 'Li-2 @ e-15', 'Nb-2 @ e-15', 'Nb-4 @ f-15', 'O-4 @ f-15', 'O-4 @ f-15', 'O-4 @ f-15', 'O-4 @ f-15', 'O-4 @ f-15', 'O-4 @ f-15', 'O-4 @ f-15']",-2.4396
mp-1219870,Pr4Sc2Nb2O14,5.5297,0.1412,51.5737,3.9806,72.6934,14.45,2.5497,57.1034,145.5965,15.59,"['Nb-2 @ a-74', 'O-2 @ e-74', 'O-2 @ e-74', 'O-2 @ e-74', 'O-8 @ j-74', 'Pr-2 @ b-74', 'Pr-2 @ c-74', 'Sc-2 @ d-74']",-3.654
mp-557072,Ba6Ti2Nb8O30,5.5846,0.1192,54.4313,3.4186,62.412,5.1428,2.4294,60.0159,145.8026,2.3961,"['Ba-2 @ a-100', 'Ba-4 @ c-100', 'Nb-8 @ d-100', 'O-2 @ b-100', 'O-4 @ c-100', 'O-8 @ d-100', 'O-8 @ d-100', 'O-8 @ d-100', 'Ti-2 @ b-100']",-3.2754
mp-768585,Ho2Ta6O18,5.8491,0.1191,39.2183,1.6014,40.2942,1.6001,3.2358,45.0674,145.8291,4.7732,"['Ho-2 @ e-11', 'O-2 @ e-11', 'O-2 @ e-11', 'O-2 @ e-11', 'O-4 @ f-11', 'O-4 @ f-11', 'O-4 @ f-11', 'Ta-2 @ a-11', 'Ta-4 @ f-11']",-3.5313
mp-1227492,Bi1Pb2F7,3.4993,0.1112,51.3588,10.9172,36.3067,3.1532,2.6615,54.8581,146.0048,18.5514,"['Bi-1 @ a-139', 'F-1 @ b-139', 'F-2 @ d-139', 'F-4 @ g-139', 'Pb-2 @ e-139']",-2.5897
mp-600089,Cs1Pb1Br3,5.0555,0.1602,41.282,4.2481,61.6586,6.2224,3.1527,46.3375,146.0882,15.3211,"['Br-3 @ c-221', 'Cs-1 @ a-221', 'Pb-1 @ b-221']",-1.3076
mp-1093604,Tl2Hg1Se1,15.9731,0.5528,43.6756,2.8558,35.2035,1.6507,2.4546,59.6487,146.4138,24.4452,"['Hg-1 @ a-71', 'Se-1 @ b-71', 'Tl-2 @ e-71']",0.1488
wbm-3-23331,Rb3Tb1F6,2.1544,0.0707,22.1459,1.8041,9.2018,0.4201,6.03,24.3003,146.5307,15.0985,"['F-2 @ c-5', 'F-2 @ c-5', 'F-2 @ c-5', 'Rb-1 @ a-5', 'Rb-2 @ c-5', 'Tb-1 @ b-5']",-3.5914
mp-39712,Na2Ca2Ta2Ti2O12,5.8182,0.2453,54.1474,5.2611,70.0737,9.1317,2.4439,59.9657,146.5501,10.1081,"['Ca-2 @ a-7', 'Na-2 @ a-7', 'O-2 @ a-7', 'O-2 @ a-7', 'O-2 @ a-7', 'O-2 @ a-7', 'O-2 @ a-7', 'O-2 @ a-7', 'Ta-2 @ a-7', 'Ti-2 @ a-7']",-3.3091
mp-1237057,Ca1Ti2Pb1O6,5.9338,0.1453,64.3887,11.7026,25.9321,7.9787,2.0841,70.3225,146.5591,44.3904,"['Ca-1 @ a-99', 'O-1 @ b-99', 'O-1 @ b-99', 'O-2 @ c-99', 'O-2 @ c-99', 'Pb-1 @ a-99', 'Ti-1 @ b-99', 'Ti-1 @ b-99']",-3.1178
mp-1214475,Ba3Ta2Zn1O9,4.8212,0.0847,38.6956,2.2584,44.4988,6.3628,3.3703,43.5168,146.6647,0.9819,"['Ba-1 @ a-164', 'Ba-2 @ d-164', 'O-3 @ e-164', 'O-6 @ i-164', 'Ta-2 @ d-164', 'Zn-1 @ b-164']",-3.2265
mp-31118,Sm4Sc4O12,4.9963,0.1015,28.6543,1.2574,30.6152,1.2898,4.3594,33.6506,146.6966,3.0355,"['O-4 @ c-62', 'O-8 @ d-62', 'Sc-4 @ a-62', 'Sm-4 @ c-62']",-3.9304
wbm-1-41005,La2Nb2O8,4.6944,0.0923,31.985,2.5551,22.6836,1.0449,4.0,36.6794,146.7176,13.9958,"['La-2 @ a-141', 'Nb-2 @ b-141', 'O-8 @ h-141']",-3.5254
mp-504427,Ti6Pb2O14,5.1538,0.1306,68.5994,6.599,27.8271,1.2274,1.9906,73.7533,146.8132,45.9262,"['O-2 @ e-11', 'O-2 @ e-11', 'O-2 @ e-11', 'O-2 @ e-11', 'O-2 @ e-11', 'O-2 @ e-11', 'O-2 @ e-11', 'Pb-2 @ e-11', 'Ti-2 @ e-11', 'Ti-2 @ e-11', 'Ti-2 @ e-11']",-3.1629
mp-28087,Pb8I2F14,3.9126,0.0986,43.6985,2.5443,27.7033,1.7659,3.0884,47.6111,147.042,19.9078,"['F-2 @ c-63', 'F-4 @ e-63', 'F-8 @ h-63', 'I-2 @ c-63', 'Pb-2 @ c-63', 'Pb-2 @ c-63', 'Pb-2 @ c-63', 'Pb-2 @ c-63']",-2.4179
wbm-1-23918,Li2Yb1Ta2O7,4.4449,0.1029,65.6092,20.3862,110.6826,31.2944,2.1,70.0541,147.1137,40.6285,"['Li-2 @ d-139', 'O-1 @ a-139', 'O-2 @ e-139', 'O-4 @ g-139', 'Ta-2 @ e-139', 'Yb-1 @ b-139']",-3.2534
wbm-3-54761,Sr2Sc1Ta1O6,4.6636,0.094,38.8784,3.4353,38.0246,4.0127,3.38,43.542,147.1718,5.5174,"['O-2 @ i-12', 'O-4 @ j-12', 'Sc-1 @ a-12', 'Sr-2 @ i-12', 'Ta-1 @ d-12']",-3.6296
wbm-2-35511,Ba2Ta1Cr1O6,5.7453,0.1825,49.6081,4.764,31.3803,2.8057,2.66,55.3534,147.2401,23.9731,"['Ba-2 @ c-225', 'Cr-1 @ a-225', 'O-6 @ e-225', 'Ta-1 @ b-225']",-3.1737
mp-1183115,Ac1Al1O3,4.3534,0.0769,31.5653,2.2538,42.9668,2.2552,4.1024,35.9187,147.353,7.048,"['Ac-1 @ a-221', 'Al-1 @ b-221', 'O-3 @ c-221']",-3.6992
mp-557861,Li2Ca1Ta2O7,4.4101,0.0973,62.5344,12.2386,114.4173,38.7046,2.2013,66.9445,147.365,47.4728,"['Ca-1 @ a-139', 'Li-2 @ d-139', 'O-1 @ b-139', 'O-2 @ e-139', 'O-4 @ g-139', 'Ta-2 @ e-139']",-3.1924
mp-773418,Li8Ni4Sn4O16,4.3935,0.1227,93.0214,9.9596,94.0737,10.5597,1.5142,97.4149,147.5056,3.3412,"['Li-4 @ a-119', 'Li-4 @ c-119', 'Ni-4 @ b-119', 'O-8 @ e-119', 'O-8 @ f-119', 'Sn-4 @ d-119']",-1.9201
mp-1105765,Na4Nb4O12,5.719,0.1166,73.2164,10.1646,168.6353,42.6776,1.8693,78.9353,147.5538,89.7,"['Na-4 @ c-62', 'Nb-4 @ a-62', 'O-4 @ c-62', 'O-8 @ d-62']",-2.8326
mp-756598,Er2Ta6O18,5.8567,0.12,39.3419,1.605,39.813,1.6233,3.2666,45.1985,147.6455,5.3855,"['Er-2 @ e-11', 'O-2 @ e-11', 'O-2 @ e-11', 'O-2 @ e-11', 'O-4 @ f-11', 'O-4 @ f-11', 'O-4 @ f-11', 'Ta-2 @ a-11', 'Ta-4 @ f-11']",-3.5309
mp-1222548,Li2Nb2W2O12,5.0505,0.1119,46.5333,6.5495,68.153,13.4888,2.8639,51.5838,147.7308,16.5692,"['Li-2 @ a-74', 'Nb-2 @ c-74', 'O-2 @ e-74', 'O-2 @ e-74', 'O-8 @ j-74', 'W-2 @ b-74']",-2.486
mp-18229,Ca4Ta8O24,5.3867,0.103,37.0371,1.7853,37.4509,1.9025,3.4823,42.4238,147.7324,4.9729,"['Ca-4 @ c-62', 'O-4 @ c-62', 'O-4 @ c-62', 'O-8 @ d-62', 'O-8 @ d-62', 'Ta-8 @ d-62']",-3.4929
mp-558248,Pr2Ta6O18,5.8061,0.117,40.1556,1.4811,45.6399,2.2293,3.2156,45.9617,147.7944,0.3218,"['O-2 @ e-11', 'O-2 @ e-11', 'O-2 @ e-11', 'O-4 @ f-11', 'O-4 @ f-11', 'O-4 @ f-11', 'Pr-2 @ e-11', 'Ta-2 @ a-11', 'Ta-4 @ f-11']",-3.5166
wbm-1-40618,P1Pb3O4F3,4.0267,0.0831,32.3353,2.1809,20.3933,1.219,4.07,36.362,147.9934,15.9687,"['F-3 @ b-146', 'O-1 @ a-146', 'O-3 @ b-146', 'P-1 @ a-146', 'Pb-3 @ b-146']",-2.4493
wbm-2-36323,Ca1Zr1Sn2O7,4.3215,0.0777,51.7426,5.1672,33.7839,4.3847,2.64,56.0641,148.0093,22.2802,"['Ca-1 @ a-5', 'O-1 @ b-5', 'O-2 @ c-5', 'O-2 @ c-5', 'O-2 @ c-5', 'Sn-2 @ c-5', 'Zr-1 @ a-5']",-2.7344
wbm-2-24819,Li2Pb2S4,7.0552,0.1189,113.4217,57.8064,56.1197,17.4654,1.23,120.4769,148.1866,64.3572,"['Li-2 @ d-121', 'Pb-1 @ a-121', 'Pb-1 @ b-121', 'S-4 @ i-121']",-0.9746
mp-1229255,Ba2Sr1Ta6Bi6O27,4.71,0.0872,88.2863,1.6134,40.3375,5.2223,1.5936,92.9963,148.1989,52.6588,"['Ba-2 @ e-71', 'Bi-2 @ g-71', 'Bi-4 @ n-71', 'O-1 @ d-71', 'O-2 @ f-71', 'O-2 @ g-71', 'O-2 @ h-71', 'O-2 @ h-71', 'O-2 @ h-71', 'O-4 @ n-71', 'O-4 @ n-71', 'O-4 @ n-71', 'O-4 @ n-71', 'Sr-1 @ a-71', 'Ta-2 @ g-71', 'Ta-4 @ n-71']",-2.7934
mp-990440,Na8Zr4O12,3.9391,0.0777,29.6354,1.8904,27.4436,1.6211,4.4161,33.5745,148.2683,6.1309,"['Na-2 @ c-15', 'Na-2 @ e-15', 'Na-4 @ f-15', 'O-4 @ f-15', 'O-4 @ f-15', 'O-4 @ f-15', 'Zr-2 @ e-15', 'Zr-2 @ e-15']",-2.8802
mp-1208758,Sr6Li12Ta4O22,3.7845,0.0792,32.327,1.5993,27.3193,2.3799,4.1061,36.1115,148.2773,8.7922,"['Li-4 @ g-51', 'Li-4 @ k-51', 'Li-4 @ k-51', 'O-2 @ e-51', 'O-4 @ i-51', 'O-4 @ j-51', 'O-4 @ k-51', 'O-8 @ l-51', 'Sr-2 @ f-51', 'Sr-4 @ h-51', 'Ta-2 @ b-51', 'Ta-2 @ e-51']",-2.9575
mp-1208162,Tl2Ge1F6,2.863,0.0878,27.7709,2.0896,29.0715,1.7969,4.8418,30.6339,148.3233,1.5624,"['F-6 @ i-164', 'Ge-1 @ a-164', 'Tl-2 @ d-164']",-2.5674
wbm-1-41119,Pr2Ta2O8,5.2917,0.1368,37.4789,1.8271,33.8776,2.4905,3.47,42.7705,148.4138,8.893,"['O-2 @ a-36', 'O-2 @ a-36', 'O-2 @ a-36', 'O-2 @ a-36', 'Pr-2 @ a-36', 'Ta-2 @ a-36']",-3.6379
mp-770419,Sr2Zr7O16,4.7239,0.0935,33.518,1.6643,37.2522,1.9636,3.8853,38.2419,148.5813,0.9897,"['O-2 @ c-148', 'O-2 @ c-148', 'O-6 @ f-148', 'O-6 @ f-148', 'Sr-2 @ c-148', 'Zr-1 @ a-148', 'Zr-6 @ f-148']",-3.7702
mp-554038,Ca4Ta8O24,5.3408,0.1293,55.5943,4.754,73.1944,6.9934,2.4426,60.9351,148.8401,12.2593,"['Ca-1 @ a-200', 'Ca-3 @ c-200', 'O-12 @ j-200', 'O-12 @ k-200', 'Ta-8 @ i-200']",-3.4205
mp-31116,La4Sc4O12,5.0574,0.1038,33.1359,1.8319,36.0749,1.7518,3.8973,38.1933,148.8509,2.1185,"['La-4 @ c-62', 'O-4 @ c-62', 'O-8 @ d-62', 'Sc-4 @ a-62']",-3.9597
mp-761057,Sr10Nb8O30,4.9134,0.15,48.1378,3.4793,43.1082,2.8705,2.8068,53.0512,148.9041,9.943,"['Nb-4 @ c-165', 'Nb-4 @ d-165', 'O-12 @ g-165', 'O-12 @ g-165', 'O-6 @ f-165', 'Sr-2 @ a-165', 'Sr-4 @ d-165', 'Sr-4 @ d-165']",-3.3087
mp-1227405,Ca4Nd2Ta2O12,4.5596,0.1306,30.4276,1.9412,30.6686,1.9761,4.2566,34.9872,148.9265,4.3186,"['Ca-2 @ a-7', 'Ca-2 @ a-7', 'Nd-2 @ a-7', 'O-2 @ a-7', 'O-2 @ a-7', 'O-2 @ a-7', 'O-2 @ a-7', 'O-2 @ a-7', 'O-2 @ a-7', 'Ta-2 @ a-7']",-3.574
wbm-1-43760,Ti3Ge1O8,6.0979,0.1768,57.8986,5.4768,39.8221,3.8192,2.33,63.9965,149.1119,24.1744,"['Ge-1 @ a-21', 'O-2 @ e-21', 'O-2 @ f-21', 'O-4 @ l-21', 'Ti-1 @ c-21', 'Ti-2 @ k-21']",-3.1304
mp-28653,Nd2Ta6O18,5.8218,0.1179,39.9847,1.5172,45.9024,2.1792,3.2562,45.8065,149.1552,0.0959,"['Nd-2 @ e-11', 'O-2 @ e-11', 'O-2 @ e-11', 'O-2 @ e-11', 'O-4 @ f-11', 'O-4 @ f-11', 'O-4 @ f-11', 'Ta-2 @ a-11', 'Ta-4 @ f-11']",-3.5204
wbm-3-54925,Sr2La1Ta1O6,4.4916,0.092,36.3961,2.926,43.569,5.7974,3.65,40.8876,149.2399,2.6813,"['La-1 @ a-87', 'O-2 @ e-87', 'O-4 @ h-87', 'Sr-2 @ d-87', 'Ta-1 @ b-87']",-3.4983
mp-21138,Mo2Pb4O10,5.1193,0.093,44.9833,1.9847,39.0845,8.0782,2.9793,50.1026,149.2707,11.0181,"['Mo-2 @ i-12', 'O-2 @ g-12', 'O-2 @ i-12', 'O-2 @ i-12', 'O-4 @ j-12', 'Pb-2 @ i-12', 'Pb-2 @ i-12']",-1.8817
mp-1179062,Ta2O5,5.722,0.1825,38.5999,2.7968,57.6382,15.5399,3.3686,44.3218,149.3026,13.3164,"['O-1 @ a-5', 'O-2 @ c-5', 'O-2 @ c-5', 'Ta-2 @ c-5']",-3.2551
mp-27690,Sr3Zr2O7,4.5089,0.0842,43.1625,2.3802,55.8574,6.8108,3.132,47.6714,149.3069,8.186,"['O-1 @ a-139', 'O-2 @ e-139', 'O-4 @ g-139', 'Sr-1 @ b-139', 'Sr-2 @ e-139', 'Zr-2 @ e-139']",-3.5348
wbm-1-41427,Ti1Pb1O4,5.6176,0.1134,136.5828,39.8564,125.562,75.1153,1.05,142.2003,149.3104,16.6384,"['O-2 @ e-119', 'O-2 @ f-119', 'Pb-1 @ a-119', 'Ti-1 @ c-119']",-2.3135
mp-20069,Co2Pb4W2O12,5.7523,0.1387,71.1287,3.4026,37.9978,3.3934,1.9432,76.881,149.3951,38.8832,"['Co-2 @ a-12', 'O-4 @ i-12', 'O-8 @ j-12', 'Pb-4 @ i-12', 'W-2 @ d-12']",-1.7787
wbm-1-37043,Hf2O4,4.5076,0.0774,29.3037,1.3789,30.7076,3.4626,4.42,33.8113,149.446,3.1037,"['Hf-2 @ a-141', 'O-4 @ e-141']",-4.0351