material_id,formula,diel_elec_wren,diel_elec_ale,diel_ionic_wren,diel_ionic_ale,diel_total_wren,diel_total_ale,bandgap_pbe,diel_total_wren_indi,fom_wren,ae_indi_direct,wyckoff,e_form
mp-849636,Sr4Ta4N4O8,7.4225,0.1783,131.196,7.198,100.373,8.6135,0.912,138.6185,126.42,38.2455,"['N-2 @ c-5', 'N-2 @ c-5', 'O-2 @ c-5', 'O-2 @ c-5', 'O-2 @ c-5', 'O-2 @ c-5', 'Sr-1 @ a-5', 'Sr-1 @ a-5', 'Sr-1 @ b-5', 'Sr-1 @ b-5', 'Ta-2 @ c-5', 'Ta-2 @ c-5']",-2.7571
mp-1217948,Ta4Mn4Nb4O24,6.1278,0.1864,43.0994,2.0606,60.7914,8.7595,2.5687,49.2271,126.4498,11.5643,"['Mn-2 @ a-18', 'Mn-2 @ b-18', 'Nb-4 @ c-18', 'O-4 @ c-18', 'O-4 @ c-18', 'O-4 @ c-18', 'O-4 @ c-18', 'O-4 @ c-18', 'O-4 @ c-18', 'Ta-4 @ c-18']",-2.9972
mp-1207720,Y2Cl6O24,3.1449,0.1421,22.0638,6.5094,30.6845,2.9765,5.0166,25.2087,126.4618,5.4759,"['Cl-6 @ h-176', 'O-12 @ i-176', 'O-6 @ h-176', 'O-6 @ h-176', 'Y-2 @ c-176']",-1.0847
mp-756042,V4O8F4,4.85,0.1506,59.1837,25.9203,55.4191,8.2835,1.9752,64.0338,126.4795,8.6147,"['F-4 @ a-19', 'O-4 @ a-19', 'O-4 @ a-19', 'V-4 @ a-19']",-2.4378
mp-755367,Li1Ta2Cu1O6,7.387,0.3185,135.8522,13.8669,135.3996,11.2633,0.883,143.2392,126.4802,7.8396,"['Cu-1 @ a-155', 'Li-1 @ b-155', 'O-3 @ d-155', 'O-3 @ e-155', 'Ta-2 @ c-155']",-2.7759
mp-27185,K1Th6F25,2.4837,0.087,17.1093,1.2746,14.6779,0.9219,6.4565,19.593,126.502,4.9151,"['F-2 @ c-166', 'F-2 @ c-166', 'F-3 @ d-166', 'F-6 @ f-166', 'F-6 @ h-166', 'F-6 @ h-166', 'K-1 @ b-166', 'Th-6 @ h-166']",-4.4384
mp-1223056,La2Ti2Zn1O8,5.6149,0.1869,50.9542,4.7167,34.0366,3.1548,2.2364,56.5691,126.5112,22.5325,"['La-2 @ g-115', 'O-2 @ e-115', 'O-2 @ f-115', 'O-2 @ g-115', 'O-2 @ g-115', 'Ti-2 @ g-115', 'Zn-1 @ a-115']",-3.4125
mp-1216759,Tl2Bi2F8,3.3919,0.1049,27.6851,2.3927,34.028,2.7379,4.071,31.077,126.5146,2.951,"['Bi-2 @ a-26', 'F-2 @ a-26', 'F-2 @ a-26', 'F-2 @ b-26', 'F-2 @ b-26', 'Tl-2 @ b-26']",-2.5178
mp-20056,Mg1Pb2W1O6,5.6414,0.1395,36.5301,3.1377,40.7059,2.2022,3.0007,42.1715,126.544,1.4656,"['Mg-1 @ a-225', 'O-6 @ e-225', 'Pb-2 @ c-225', 'W-1 @ b-225']",-2.1307
mp-675300,Ho4Zr4O14,5.3054,0.1297,38.9156,1.5987,42.9662,1.7862,2.862,44.221,126.5606,1.2549,"['Ho-2 @ a-51', 'Ho-2 @ f-51', 'O-2 @ e-51', 'O-2 @ e-51', 'O-2 @ e-51', 'O-4 @ j-51', 'O-4 @ j-51', 'Zr-2 @ c-51', 'Zr-2 @ f-51']",-3.7858
mp-1209295,Rb2Bi6F20,3.3326,0.1132,25.2915,1.1033,27.4528,1.6152,4.4235,28.6241,126.6187,1.1713,"['Bi-6 @ e-225', 'F-12 @ h-225', 'F-8 @ f-225', 'Rb-2 @ c-225']",-2.8677
mp-1214664,Ba12Na4Ta4V4O34,4.0566,0.0939,36.9897,3.7369,30.8114,1.8189,3.0862,41.0463,126.677,10.2348,"['Ba-2 @ a-194', 'Ba-2 @ b-194', 'Ba-4 @ f-194', 'Ba-4 @ f-194', 'Na-4 @ e-194', 'O-12 @ k-194', 'O-12 @ k-194', 'O-4 @ f-194', 'O-6 @ h-194', 'Ta-4 @ f-194', 'V-4 @ f-194']",-3.0856
mp-553281,Ba2La1Nb1O6,5.0004,0.0984,36.5612,1.7183,38.6166,3.2872,3.0489,41.5616,126.7172,2.9451,"['Ba-2 @ i-12', 'La-1 @ a-12', 'Nb-1 @ d-12', 'O-2 @ i-12', 'O-4 @ j-12']",-3.3972
wbm-1-16558,Rb1Bi2F7,3.0586,0.1062,24.0187,2.3108,18.0896,0.9751,4.68,27.0773,126.7217,8.9877,"['Bi-1 @ a-8', 'Bi-1 @ a-8', 'F-1 @ a-8', 'F-1 @ a-8', 'F-1 @ a-8', 'F-1 @ a-8', 'F-1 @ a-8', 'F-1 @ a-8', 'F-1 @ a-8', 'Rb-1 @ a-8']",-2.8343
mp-1102291,La3Ta1O7,5.8348,0.1689,29.7664,2.2381,40.9728,2.7554,3.5595,35.6012,126.7224,5.3716,"['La-1 @ a-65', 'La-2 @ f-65', 'O-1 @ c-65', 'O-2 @ h-65', 'O-4 @ p-65', 'Ta-1 @ b-65']",-3.819
mp-1016873,Ca1Hf1O3,4.578,0.1195,29.551,2.0936,44.8172,5.1406,3.7158,34.129,126.8166,10.6882,"['Ca-1 @ a-221', 'Hf-1 @ b-221', 'O-3 @ c-221']",-3.6758
mp-1208927,Sr4Er2Ta2O12,4.5407,0.0957,28.1919,1.4769,26.2629,1.2296,3.8744,32.7326,126.819,6.4697,"['Er-2 @ a-14', 'O-4 @ e-14', 'O-4 @ e-14', 'O-4 @ e-14', 'Sr-4 @ e-14', 'Ta-2 @ d-14']",-3.6308
wbm-3-55080,Sr2Tb1Ta1O6,4.4712,0.095,28.9046,2.1383,40.1855,5.5245,3.8,33.3758,126.8279,6.8098,"['O-2 @ e-87', 'O-4 @ h-87', 'Sr-2 @ d-87', 'Ta-1 @ a-87', 'Tb-1 @ b-87']",-3.5828
wbm-1-10013,Ga2Pb2Cl6,4.9196,0.124,40.2224,4.7657,59.5792,1.9372,2.81,45.142,126.8491,14.4372,"['Cl-2 @ c-63', 'Cl-4 @ f-63', 'Ga-2 @ c-63', 'Pb-2 @ a-63']",-1.3112
mp-30997,Zr4Tl4F20,2.8159,0.0859,23.6189,2.2747,17.5648,1.0566,4.8002,26.4347,126.8921,8.8699,"['F-4 @ e-14', 'F-4 @ e-14', 'F-4 @ e-14', 'F-4 @ e-14', 'F-4 @ e-14', 'Tl-4 @ e-14', 'Zr-4 @ e-14']",-3.5122
wbm-2-34257,Rb4Th2O6,3.7768,0.0687,48.7003,2.7,44.6019,3.5448,2.42,52.4771,126.9947,7.8752,"['O-2 @ a-36', 'O-4 @ b-36', 'Rb-4 @ b-36', 'Th-2 @ a-36']",-2.799
mp-757158,Li4Ta12O32,5.4467,0.1526,51.2859,3.0481,35.8868,5.5151,2.2391,56.7326,127.0299,20.8458,"['Li-4 @ i-51', 'O-2 @ b-51', 'O-2 @ e-51', 'O-2 @ e-51', 'O-2 @ f-51', 'O-4 @ i-51', 'O-4 @ i-51', 'O-4 @ j-51', 'O-4 @ j-51', 'O-4 @ j-51', 'O-4 @ j-51', 'Ta-2 @ f-51', 'Ta-2 @ f-51', 'Ta-4 @ j-51', 'Ta-4 @ j-51']",-3.2268
mp-20337,Zr1Pb1O3,6.3176,0.1254,32.8019,36.369,26.9435,9.9127,3.2477,39.1195,127.0483,12.176,"['O-1 @ a-38', 'O-2 @ e-38', 'Pb-1 @ a-38', 'Zr-1 @ b-38']",-2.8524
mp-674842,Er4Zr4O14,5.3047,0.1292,39.1336,1.6113,42.4435,1.8263,2.8607,44.4383,127.1246,1.9948,"['Er-2 @ a-51', 'Er-2 @ f-51', 'O-2 @ e-51', 'O-2 @ e-51', 'O-2 @ e-51', 'O-4 @ j-51', 'O-4 @ j-51', 'Zr-2 @ c-51', 'Zr-2 @ f-51']",-3.8001
mp-1105280,Li4Ta4O12,4.958,0.0925,45.7501,2.2484,91.6114,20.5641,2.5071,50.708,127.1301,40.9033,"['Li-4 @ a-62', 'O-4 @ c-62', 'O-8 @ d-62', 'Ta-4 @ c-62']",-3.0259
wbm-2-36048,Sr2Dy1Ta1O6,4.4674,0.0933,28.7379,2.1735,40.7728,5.8354,3.83,33.2053,127.1761,7.5675,"['Dy-1 @ a-87', 'O-2 @ e-87', 'O-4 @ h-87', 'Sr-2 @ d-87', 'Ta-1 @ b-87']",-3.5951
mp-770380,Ta6In2O18,5.6511,0.1266,38.8423,1.6853,38.4534,2.1375,2.8602,44.4934,127.26,6.04,"['In-2 @ e-11', 'O-2 @ e-11', 'O-2 @ e-11', 'O-2 @ e-11', 'O-4 @ f-11', 'O-4 @ f-11', 'O-4 @ f-11', 'Ta-2 @ a-11', 'Ta-4 @ f-11']",-3.0488
mp-1080719,Sr2Y1Ta1O6,4.4793,0.0913,28.7852,2.1321,41.5756,6.0787,3.8259,33.2645,127.2666,8.3111,"['O-2 @ e-87', 'O-4 @ h-87', 'Sr-2 @ d-87', 'Ta-1 @ a-87', 'Y-1 @ b-87']",-3.5846
mp-1194961,Nb4Tl4V8O32,6.0614,0.1409,45.875,3.663,92.6395,11.8053,2.452,51.9364,127.3482,40.7031,"['Nb-4 @ c-62', 'O-4 @ c-62', 'O-4 @ c-62', 'O-4 @ c-62', 'O-4 @ c-62', 'O-8 @ d-62', 'O-8 @ d-62', 'Tl-4 @ c-62', 'V-4 @ c-62', 'V-4 @ c-62']",-2.4382
mp-754239,Sc4Ga4O12,5.027,0.1014,26.19,1.0772,25.9874,1.7761,4.0847,31.217,127.5121,5.2296,"['Ga-4 @ a-62', 'O-4 @ c-62', 'O-8 @ d-62', 'Sc-4 @ c-62']",-3.0516
mp-20222,Sr4Nb2In2O12,4.8927,0.1053,32.5088,2.6264,39.7219,2.734,3.41,37.4015,127.5392,2.3204,"['In-2 @ a-14', 'Nb-2 @ d-14', 'O-4 @ e-14', 'O-4 @ e-14', 'O-4 @ e-14', 'Sr-4 @ e-14']",-2.9928
mp-4891,Ho4Al4O12,4.085,0.0891,17.778,0.8983,16.4296,0.775,5.8359,21.863,127.5904,5.4335,"['Al-4 @ a-62', 'Ho-4 @ c-62', 'O-4 @ c-62', 'O-8 @ d-62']",-3.7648
mp-755266,Li4Ti3O8,5.4871,0.1547,53.73,5.8632,34.8341,2.2176,2.1569,59.2171,127.7253,24.3829,"['Li-1 @ a-12', 'Li-1 @ d-12', 'Li-2 @ e-12', 'O-2 @ i-12', 'O-2 @ i-12', 'O-4 @ j-12', 'Ti-1 @ c-12', 'Ti-2 @ f-12']",-3.0358
wbm-3-53275,Ca2Sc1Nb1O6,4.8595,0.0941,38.6045,3.2644,38.1915,4.0532,2.94,43.464,127.7841,5.2724,"['Ca-2 @ i-12', 'Nb-1 @ a-12', 'O-2 @ i-12', 'O-4 @ j-12', 'Sc-1 @ d-12']",-3.4954
mp-1208608,Ta4As4O20,4.5318,0.1021,37.2785,2.7818,34.1409,3.5236,3.0581,41.8104,127.8603,7.6694,"['As-4 @ c-62', 'O-4 @ a-62', 'O-4 @ c-62', 'O-4 @ c-62', 'O-8 @ d-62', 'Ta-4 @ c-62']",-2.5381
wbm-1-9807,Pb3Cl6,4.1972,0.103,38.871,5.0225,42.5097,1.6708,2.97,43.0682,127.9125,0.5585,"['Cl-1 @ a-156', 'Cl-1 @ a-156', 'Cl-1 @ a-156', 'Cl-1 @ b-156', 'Cl-1 @ b-156', 'Cl-1 @ c-156', 'Pb-1 @ b-156', 'Pb-1 @ c-156', 'Pb-1 @ c-156']",-1.5298
wbm-1-42539,La2Mg1Zr1O6,4.7732,0.1034,26.5084,1.2944,30.9949,1.281,4.09,31.2816,127.9418,0.2867,"['La-2 @ c-148', 'Mg-1 @ a-148', 'O-6 @ f-148', 'Zr-1 @ b-148']",-3.693
mp-1205549,Ba2Gd1Ta1O6,4.6244,0.0954,34.069,2.5518,38.1035,3.0594,3.3076,38.6934,127.9823,0.5899,"['Ba-2 @ d-87', 'Gd-1 @ a-87', 'O-2 @ e-87', 'O-4 @ h-87', 'Ta-1 @ b-87']",-3.554
mp-27891,Bi4S2O4,11.2774,0.4779,138.3667,165.4086,294.2462,21.9827,0.8559,149.644,128.0803,144.6022,"['Bi-4 @ g-58', 'O-4 @ g-58', 'S-2 @ a-58']",-1.377
mp-754711,Nb4Pb4O14,7.4784,0.3233,115.4708,9.6452,135.058,15.9803,1.0429,122.9493,128.2238,12.1088,"['Nb-4 @ c-227', 'O-12 @ f-227', 'O-2 @ b-227', 'Pb-4 @ d-227']",-2.502
mp-560531,Ba2W2O8,4.1766,0.1001,43.3387,3.4142,25.1187,2.7857,2.6998,47.5153,128.2817,22.3966,"['Ba-2 @ e-11', 'O-2 @ a-11', 'O-2 @ e-11', 'O-4 @ f-11', 'W-2 @ e-11']",-2.673
wbm-2-16617,Pb4Br4F4,4.454,0.0997,33.9625,4.5659,49.1604,2.014,3.34,38.4166,128.3113,10.7439,"['Br-4 @ c-62', 'F-4 @ c-62', 'Pb-4 @ c-62']",-1.8208
mp-6066,Na2Ta2Ge2O10,4.1374,0.0983,34.0362,2.2186,39.0908,3.7897,3.3624,38.1737,128.3551,0.9172,"['Ge-2 @ e-15', 'Na-2 @ e-15', 'O-2 @ e-15', 'O-4 @ f-15', 'O-4 @ f-15', 'Ta-2 @ a-15']",-2.7408
mp-1205803,Ba2Er1Ta1O6,4.7353,0.1365,33.1061,1.9378,34.6914,2.3957,3.3934,37.8414,128.4109,3.1499,"['Ba-2 @ c-225', 'Er-1 @ a-225', 'O-6 @ e-225', 'Ta-1 @ b-225']",-3.6107
wbm-4-26820,Yb2La1Ta1O6,4.5876,0.0871,32.9679,1.512,36.4612,3.3033,3.42,37.5554,128.4396,1.0943,"['La-1 @ a-12', 'O-2 @ i-12', 'O-4 @ j-12', 'Ta-1 @ d-12', 'Yb-2 @ i-12']",-3.6466
mp-16837,Nb6Ag2O16,5.5927,0.1127,75.221,8.3925,94.6828,11.3071,1.5894,80.8138,128.4454,13.869,"['Ag-2 @ a-72', 'Nb-2 @ b-72', 'Nb-4 @ j-72', 'O-4 @ j-72', 'O-4 @ j-72', 'O-8 @ k-72']",-2.669
wbm-3-23879,Ho2Pb1F8,2.6038,0.0805,20.3032,1.1779,14.9141,0.8816,5.61,22.907,128.5084,7.9929,"['F-1 @ a-8', 'F-1 @ a-8', 'F-2 @ b-8', 'F-2 @ b-8', 'F-2 @ b-8', 'Ho-2 @ b-8', 'Pb-1 @ a-8']",-4.0001
mp-9783,Ba3As2O8,3.6594,0.0835,27.9241,1.3493,31.467,2.4296,4.0707,31.5836,128.5673,0.1166,"['As-2 @ c-166', 'Ba-1 @ a-166', 'Ba-2 @ c-166', 'O-2 @ c-166', 'O-6 @ h-166']",-2.7014
wbm-3-55001,Sr2Pr1Ta1O6,4.4949,0.0922,31.535,2.4154,40.947,5.452,3.57,36.0299,128.6268,4.9171,"['O-2 @ e-87', 'O-4 @ h-87', 'Pr-1 @ a-87', 'Sr-2 @ d-87', 'Ta-1 @ b-87']",-3.4704
mp-559154,Ti8Bi4O22,5.6864,0.12,55.2191,3.8358,42.3555,5.703,2.1127,60.9055,128.6751,18.55,"['Bi-4 @ f-15', 'O-2 @ e-15', 'O-4 @ f-15', 'O-4 @ f-15', 'O-4 @ f-15', 'O-4 @ f-15', 'O-4 @ f-15', 'Ti-4 @ f-15', 'Ti-4 @ f-15']",-2.9744
wbm-1-42167,Ca1La2Zr1O6,4.6608,0.1042,26.3454,1.336,31.7551,1.2911,4.15,31.0061,128.6755,0.749,"['Ca-1 @ a-148', 'La-2 @ c-148', 'O-6 @ f-148', 'Zr-1 @ b-148']",-3.7441
wbm-3-56826,Cs2Sc1Pb1O1F5,2.9842,0.0791,27.876,4.4092,16.2706,1.0798,4.17,30.8602,128.687,14.5896,"['Cs-2 @ b-107', 'F-1 @ a-107', 'F-4 @ c-107', 'O-1 @ a-107', 'Pb-1 @ a-107', 'Sc-1 @ a-107']",-3.2136
mp-1217801,Sr1Ti1Nb2Bi2Pb1O12,6.3073,0.12,129.0727,11.0043,142.7419,35.8669,0.9508,135.38,128.7193,7.3619,"['Bi-1 @ a-107', 'Bi-1 @ a-107', 'Nb-1 @ a-107', 'Nb-1 @ a-107', 'O-1 @ a-107', 'O-1 @ a-107', 'O-1 @ a-107', 'O-1 @ a-107', 'O-2 @ b-107', 'O-2 @ b-107', 'O-2 @ b-107', 'O-2 @ b-107', 'Pb-1 @ a-107', 'Sr-1 @ a-107', 'Ti-1 @ a-107']",-2.6649
mp-755461,Dy6Ta2O14,4.6725,0.0991,33.1534,1.4671,30.7524,1.8152,3.4034,37.8259,128.7367,7.0735,"['Dy-2 @ a-63', 'Dy-4 @ g-63', 'O-2 @ c-63', 'O-4 @ g-63', 'O-8 @ h-63', 'Ta-2 @ b-63']",-3.8507
mp-1212147,Hf2Tl2Cd2F14,2.6939,0.0787,23.3589,2.0354,14.6332,0.8113,4.9416,26.0527,128.7422,11.4196,"['Cd-2 @ c-63', 'F-2 @ c-63', 'F-4 @ f-63', 'F-4 @ g-63', 'F-4 @ g-63', 'Hf-2 @ c-63', 'Tl-2 @ a-63']",-3.3024
mp-1216041,Y2Ta2Bi4O14,6.8604,0.1772,47.7641,4.5846,39.784,5.6857,2.3581,54.6246,128.8102,14.8406,"['Bi-2 @ a-74', 'Bi-2 @ c-74', 'O-2 @ e-74', 'O-2 @ e-74', 'O-2 @ e-74', 'O-8 @ j-74', 'Ta-2 @ b-74', 'Y-2 @ d-74']",-2.7326
mp-1206631,Ni2Pb4W2O12,6.3876,0.1494,34.8842,2.363,34.7463,3.1902,3.122,41.2718,128.8507,6.5255,"['Ni-2 @ a-225', 'O-12 @ e-225', 'Pb-4 @ c-225', 'W-2 @ b-225']",-1.6943
wbm-1-41964,Ba2Gd1Ta1O6,4.7627,0.0914,34.4041,1.5495,35.246,2.5331,3.29,39.1668,128.8588,3.9208,"['Ba-2 @ i-12', 'Gd-1 @ a-12', 'O-2 @ i-12', 'O-4 @ j-12', 'Ta-1 @ d-12']",-3.5535
mp-8037,Ba1Th1O3,4.47,0.1028,30.3874,2.3857,30.9301,2.3659,3.6979,34.8574,128.8992,3.9273,"['Ba-1 @ a-221', 'O-3 @ c-221', 'Th-1 @ b-221']",-3.7008
mp-1232173,Ho4Mg2Se8,9.3442,0.2144,56.5108,258.6581,58.5402,43.4008,1.9584,65.8549,128.9703,7.3147,"['Ho-4 @ d-122', 'Mg-2 @ a-122', 'Se-8 @ e-122']",-1.5993
mp-756458,Er4Al4O12,4.0627,0.0884,18.1746,0.9601,16.2712,0.7671,5.803,22.2373,129.0429,5.966,"['Al-4 @ a-62', 'Er-4 @ c-62', 'O-4 @ c-62', 'O-8 @ d-62']",-3.7725
wbm-1-42682,Ni1Pb2W1O6,6.3876,0.1494,34.8842,2.363,34.7463,3.1902,3.13,41.2719,129.1809,6.5255,"['Ni-1 @ a-225', 'O-6 @ e-225', 'Pb-2 @ c-225', 'W-1 @ b-225']",-1.6694
mp-560261,Ta4Bi4O16,5.6637,0.1249,38.1403,1.7903,39.6229,10.5375,2.9491,43.8039,129.1822,4.181,"['Bi-2 @ i-2', 'Bi-2 @ i-2', 'O-2 @ i-2', 'O-2 @ i-2', 'O-2 @ i-2', 'O-2 @ i-2', 'O-2 @ i-2', 'O-2 @ i-2', 'O-2 @ i-2', 'O-2 @ i-2', 'Ta-2 @ i-2', 'Ta-2 @ i-2']",-2.7135
wbm-1-39307,Nd2Bi2O6,5.7869,0.1252,36.4411,2.9176,42.5267,2.4871,3.06,42.228,129.2178,0.2987,"['Bi-2 @ a-161', 'Nd-2 @ a-161', 'O-6 @ b-161']",-2.6896
wbm-1-39860,Sr4Th4O12,4.5292,0.0979,27.7941,1.5468,24.1122,1.0462,4.0,32.3232,129.293,8.2111,"['O-4 @ c-62', 'O-8 @ d-62', 'Sr-4 @ c-62', 'Th-4 @ a-62']",-3.8103
mp-1220040,Pb6I2F10,3.7835,0.1034,37.7415,3.1723,80.6075,8.1254,3.1169,41.525,129.4292,39.0825,"['F-2 @ a-36', 'F-2 @ a-36', 'F-2 @ a-36', 'F-2 @ a-36', 'F-2 @ a-36', 'I-2 @ a-36', 'Pb-2 @ a-36', 'Pb-2 @ a-36', 'Pb-2 @ a-36']",-2.2893
wbm-1-39899,Tb2Bi2O6,5.6372,0.1215,35.2303,3.6281,38.7588,3.2742,3.17,40.8675,129.5501,2.1088,"['Bi-2 @ a-161', 'O-6 @ b-161', 'Tb-2 @ a-161']",-2.7882
wbm-3-23990,Tb2Pb1F8,2.6754,0.0979,22.9922,2.4076,16.0641,1.239,5.05,25.6676,129.6214,9.6035,"['F-2 @ i-12', 'F-2 @ i-12', 'F-2 @ i-12', 'F-2 @ i-12', 'Pb-1 @ a-12', 'Tb-2 @ i-12']",-3.9771
mp-20589,Mo4O12,5.5317,0.1606,58.7042,12.5368,73.8015,12.7174,2.0181,64.2359,129.6344,9.5656,"['Mo-4 @ c-62', 'O-4 @ c-62', 'O-4 @ c-62', 'O-4 @ c-62']",-1.9789
wbm-1-25817,Li2Ti2O6,4.5909,0.2663,41.569,4.4851,32.007,5.1155,2.81,46.1599,129.7093,14.1529,"['Li-1 @ a-1', 'Li-1 @ a-1', 'O-1 @ a-1', 'O-1 @ a-1', 'O-1 @ a-1', 'O-1 @ a-1', 'O-1 @ a-1', 'O-1 @ a-1', 'Ti-1 @ a-1', 'Ti-1 @ a-1']",-2.7872
wbm-3-30856,Tl2Ge2Br6,4.8723,0.1007,64.1281,4.3083,76.9483,4.705,1.88,69.0004,129.7207,7.948,"['Br-2 @ c-63', 'Br-4 @ f-63', 'Ge-2 @ a-63', 'Tl-2 @ c-63']",-0.7008
wbm-3-54910,Sr2Ho1Ta1O6,4.4726,0.0934,30.0341,1.6684,28.8896,2.2158,3.76,34.5068,129.7454,5.6172,"['Ho-1 @ a-12', 'O-2 @ i-12', 'O-4 @ j-12', 'Sr-2 @ i-12', 'Ta-1 @ d-12']",-3.6146
mp-779517,Sr3Hf2O7,4.3041,0.0832,30.6091,1.8002,34.9661,3.5832,3.7163,34.9132,129.7479,0.0529,"['Hf-2 @ e-139', 'O-1 @ a-139', 'O-2 @ e-139', 'O-4 @ g-139', 'Sr-1 @ b-139', 'Sr-2 @ e-139']",-3.678
wbm-3-55140,Sr2Y1Ta1O6,4.4619,0.0899,30.4167,1.6439,28.9005,2.1291,3.72,34.8786,129.7485,5.9782,"['O-2 @ i-12', 'O-4 @ j-12', 'Sr-2 @ i-12', 'Ta-1 @ a-12', 'Y-1 @ d-12']",-3.5938
mp-1218560,Sr3Pb1S4,6.1808,0.1533,50.4232,2.9126,55.1036,6.3335,2.2923,56.604,129.7533,1.5004,"['Pb-1 @ a-47', 'S-1 @ b-47', 'S-1 @ d-47', 'S-2 @ r-47', 'Sr-1 @ c-47', 'Sr-2 @ t-47']",-2.0731
wbm-1-40331,Ba2Th1O4,4.3683,0.0896,39.0421,3.0599,33.9092,4.142,2.99,43.4104,129.797,9.5012,"['Ba-2 @ e-139', 'O-2 @ c-139', 'O-2 @ e-139', 'Th-1 @ a-139']",-3.4612
mp-1518732,K1La1Nb4O12,6.5571,0.1131,73.9734,10.2636,68.3887,9.8302,1.6123,80.5305,129.8393,12.1418,"['K-1 @ a-38', 'La-1 @ b-38', 'Nb-4 @ f-38', 'O-2 @ c-38', 'O-2 @ c-38', 'O-2 @ d-38', 'O-2 @ e-38', 'O-4 @ f-38']",-3.1186
wbm-1-41942,Ba2Dy1Ta1O6,4.7775,0.0939,32.7541,1.6977,34.0808,2.8303,3.46,37.5315,129.8591,3.4507,"['Ba-2 @ i-12', 'Dy-1 @ a-12', 'O-2 @ i-12', 'O-4 @ j-12', 'Ta-1 @ d-12']",-3.5918
mp-1519012,K1Pr1Nb4O12,6.5648,0.1129,73.4364,10.6802,71.8115,10.2623,1.6235,80.0012,129.8819,8.1897,"['K-1 @ a-38', 'Nb-4 @ f-38', 'O-2 @ c-38', 'O-2 @ c-38', 'O-2 @ d-38', 'O-2 @ e-38', 'O-4 @ f-38', 'Pr-1 @ b-38']",-3.0911
wbm-1-37699,Rb2Sc2O4,3.3975,0.0866,55.4015,3.5728,46.0048,6.0912,2.21,58.799,129.9458,12.7942,"['O-4 @ c-227', 'Rb-2 @ b-227', 'Sc-2 @ a-227']",-2.932
wbm-1-32615,Na2Ge1Pb1S4,6.1183,0.1113,46.7103,45.8392,36.3831,17.4279,2.46,52.8286,129.9584,16.4455,"['Ge-1 @ a-121', 'Na-2 @ d-121', 'Pb-1 @ b-121', 'S-4 @ i-121']",-1.0507
mp-23074,Bi2O2F2,4.7539,0.1074,36.7652,2.5786,42.5641,3.3044,3.1303,41.5192,129.9674,1.0449,"['Bi-2 @ c-129', 'F-2 @ c-129', 'O-2 @ a-129']",-2.2152
mp-557438,Sm2Ti3Bi2O12,5.6165,0.1295,65.8959,3.876,50.753,17.3436,1.8183,71.5124,130.0309,20.7594,"['Bi-2 @ e-139', 'O-2 @ c-139', 'O-2 @ d-139', 'O-2 @ e-139', 'O-2 @ e-139', 'O-4 @ g-139', 'Sm-2 @ e-139', 'Ti-1 @ a-139', 'Ti-2 @ e-139']",-3.1306
mp-28011,Tl4Sn4S6,10.2783,0.229,143.0422,10.3658,159.9162,15.701,0.8482,153.3205,130.0464,6.5957,"['S-2 @ e-15', 'S-4 @ f-15', 'Sn-4 @ f-15', 'Tl-4 @ f-15']",-0.6892
mp-3626,Sr4Zr4O12,4.5304,0.0844,33.4905,1.5672,40.3325,2.1716,3.4208,38.0209,130.0619,2.3116,"['O-4 @ e-63', 'O-4 @ f-63', 'O-4 @ g-63', 'Sr-2 @ c-63', 'Sr-2 @ c-63', 'Zr-4 @ d-63']",-3.6632
mp-1227336,Ba1Sr1Ti2O6,5.8465,0.1297,68.5846,22.6744,33.362,5.6569,1.7491,74.4311,130.1874,41.069,"['Ba-1 @ a-123', 'O-1 @ c-123', 'O-1 @ d-123', 'O-4 @ i-123', 'Sr-1 @ b-123', 'Ti-2 @ h-123']",-3.5229
mp-989577,Li1Tl2Ga1F6,3.0706,0.0967,27.2961,2.4018,31.3787,2.0009,4.2919,30.3667,130.3307,1.0121,"['F-6 @ e-225', 'Ga-1 @ a-225', 'Li-1 @ b-225', 'Tl-2 @ c-225']",-2.6665
mp-1183152,Ac1Sc1O3,4.903,0.094,33.6124,2.1817,72.5244,5.5637,3.3847,38.5154,130.3632,34.009,"['Ac-1 @ a-221', 'O-3 @ c-221', 'Sc-1 @ b-221']",-3.8382
mp-12385,Ba2Y1Ta1O6,4.6672,0.0973,32.9485,2.5801,40.6109,4.0931,3.4657,37.6156,130.3644,2.9953,"['Ba-2 @ d-87', 'O-2 @ e-87', 'O-4 @ h-87', 'Ta-1 @ a-87', 'Y-1 @ b-87']",-3.5818
wbm-2-15573,Cs1Tl2In1F6,2.9376,0.0911,27.3184,1.6835,20.6937,2.2942,4.31,30.256,130.4034,9.5623,"['Cs-1 @ a-225', 'F-6 @ e-225', 'In-1 @ b-225', 'Tl-2 @ c-225']",-2.5056
wbm-3-55059,Sr2Sm1Ta1O6,4.49,0.0935,30.7752,2.4356,40.6179,5.5489,3.7,35.2652,130.4811,5.3527,"['O-2 @ e-87', 'O-4 @ h-87', 'Sm-1 @ a-87', 'Sr-2 @ d-87', 'Ta-1 @ b-87']",-3.5295
mp-768234,La8Hf4O20,4.5098,0.1048,28.0532,1.8511,26.0066,0.9851,4.0102,32.563,130.5842,6.5564,"['Hf-4 @ c-62', 'La-4 @ c-62', 'La-4 @ c-62', 'O-4 @ c-62', 'O-4 @ c-62', 'O-4 @ c-62', 'O-4 @ c-62', 'O-4 @ c-62']",-3.976
mp-1095833,Tl2Hg1Te1,19.41,0.6763,41.9058,1.935,37.5265,1.8428,2.1305,61.3158,130.6332,23.7893,"['Hg-1 @ a-71', 'Te-1 @ b-71', 'Tl-2 @ e-71']",0.2381
mp-1228349,Ba6Hf2Nb8O30,5.501,0.1155,52.6593,3.2291,59.4296,4.284,2.2464,58.1603,130.6512,1.2693,"['Ba-2 @ a-100', 'Ba-4 @ c-100', 'Hf-2 @ b-100', 'Nb-8 @ d-100', 'O-2 @ b-100', 'O-4 @ c-100', 'O-8 @ d-100', 'O-8 @ d-100', 'O-8 @ d-100']",-3.3306
mp-557028,Sr2La1Ta3O11,4.6927,0.0984,38.2037,1.5435,39.7703,4.8128,3.0459,42.8964,130.6581,3.126,"['La-1 @ a-71', 'O-1 @ b-71', 'O-2 @ g-71', 'O-4 @ n-71', 'O-4 @ n-71', 'Sr-2 @ h-71', 'Ta-1 @ d-71', 'Ta-2 @ h-71']",-3.5668
wbm-1-42021,Ba2Tb1Ta1O6,4.7764,0.0944,32.7946,1.6622,34.104,2.8141,3.48,37.571,130.747,3.4669,"['Ba-2 @ i-12', 'O-2 @ i-12', 'O-4 @ j-12', 'Ta-1 @ a-12', 'Tb-1 @ d-12']",-3.5813
wbm-1-39694,Sm2Bi2O6,5.7283,0.1242,36.4696,3.17,40.8353,2.597,3.1,42.1979,130.8136,1.3626,"['Bi-2 @ a-161', 'O-6 @ b-161', 'Sm-2 @ a-161']",-2.7277
mp-1206567,Ba2Sc1Pa1O6,4.4038,0.1188,34.0959,1.7076,36.3186,2.5779,3.3981,38.4997,130.8257,2.1811,"['Ba-2 @ c-225', 'O-6 @ e-225', 'Pa-1 @ a-225', 'Sc-1 @ b-225']",-3.7746
mp-558356,Na4Cr2Ni2F14,2.3702,0.0777,29.5644,4.2874,13.1114,3.1756,4.1023,31.9347,131.0056,18.8232,"['Cr-2 @ a-74', 'F-2 @ e-74', 'F-4 @ h-74', 'F-8 @ j-74', 'Na-2 @ b-74', 'Na-2 @ c-74', 'Ni-2 @ d-74']",-2.8555
mp-504591,Pb4W4O16,5.6177,0.097,37.0669,4.1945,35.3506,3.6943,3.07,42.6846,131.0417,7.334,"['O-4 @ e-14', 'O-4 @ e-14', 'O-4 @ e-14', 'O-4 @ e-14', 'Pb-4 @ e-14', 'W-4 @ e-14']",-2.0498
mp-636827,Ti2O4,6.1519,0.0921,40.8753,4.9272,73.9376,148.4646,2.7867,47.0271,131.0505,26.9105,"['O-1 @ a-25', 'O-1 @ b-25', 'O-2 @ h-25', 'Ti-1 @ a-25', 'Ti-1 @ d-25']",-3.2097
mp-1522146,Ba4Na4Ce4Nb4O24,5.4151,0.1441,59.5804,1.9713,46.8445,5.7173,2.0166,64.9955,131.0698,18.1509,"['Ba-2 @ a-48', 'Ba-2 @ b-48', 'Ce-4 @ e-48', 'Na-2 @ c-48', 'Na-2 @ d-48', 'Nb-4 @ f-48', 'O-8 @ m-48', 'O-8 @ m-48', 'O-8 @ m-48']",-3.1992