material_id,formula,diel_elec_wren,diel_elec_ale,diel_ionic_wren,diel_ionic_ale,diel_total_wren,diel_total_ale,bandgap_pbe,diel_total_wren_indi,fom_wren,ae_indi_direct,wyckoff,e_form
mp-542201,Ba3Nb2O8,4.6385,0.0882,102.1275,14.4795,51.168,3.7219,4.5797,106.766,488.9563,55.598,"['Ba-1 @ a-166', 'Ba-2 @ c-166', 'Nb-2 @ c-166', 'O-2 @ c-166', 'O-6 @ h-166']",-3.2694
mp-1539190,Cs2Hf1W3O12,4.8781,0.1461,160.0262,11.1717,161.3096,27.4771,3.0183,164.9043,497.7306,3.5947,"['Cs-2 @ c-166', 'Hf-1 @ a-166', 'O-6 @ h-166', 'O-6 @ h-166', 'W-3 @ d-166']",-2.595
mp-1214569,Ba3Ca1Nb2O9,4.8832,0.0923,185.2151,15.4813,195.4253,28.7436,2.6567,190.0983,505.0341,5.327,"['Ba-1 @ a-164', 'Ba-2 @ d-164', 'Ca-1 @ b-164', 'Nb-2 @ d-164', 'O-3 @ e-164', 'O-6 @ i-164']",-3.3124
wbm-1-15651,Cs3Gd1F6,2.2078,0.0776,115.2264,13.4566,46.2877,30.166,4.42,117.4342,519.0591,71.1465,"['Cs-1 @ a-139', 'Cs-2 @ d-139', 'F-2 @ e-139', 'F-4 @ j-139', 'Gd-1 @ b-139']",-3.4906
mp-1103862,Ba3Sr1Nb2O9,4.8648,0.0922,183.7658,10.5234,195.8273,27.8454,2.7723,188.6306,522.9407,7.1967,"['Ba-1 @ a-164', 'Ba-2 @ d-164', 'Nb-2 @ d-164', 'O-3 @ e-164', 'O-6 @ i-164', 'Sr-1 @ b-164']",-3.252
mp-1214396,Ba4Nb2O9,4.8893,0.0927,176.5911,8.9925,184.1901,26.3872,2.9081,181.4804,527.7632,2.7097,"['Ba-1 @ a-164', 'Ba-1 @ b-164', 'Ba-2 @ d-164', 'Nb-2 @ d-164', 'O-3 @ e-164', 'O-6 @ i-164']",-3.1954
mp-1214502,Ba3Nb2Cd1O9,5.1679,0.0933,181.2712,11.674,203.7857,32.7855,2.8442,186.4392,530.2702,17.3466,"['Ba-1 @ a-164', 'Ba-2 @ d-164', 'Cd-1 @ b-164', 'Nb-2 @ d-164', 'O-3 @ e-164', 'O-6 @ i-164']",-3.0311
mp-1220897,Na2Sr2Mg4F14,2.0489,0.058,79.449,15.8608,34.3005,18.1634,6.5089,81.4979,530.4619,47.1974,"['F-2 @ e-74', 'F-2 @ e-74', 'F-2 @ e-74', 'F-8 @ j-74', 'Mg-2 @ a-74', 'Mg-2 @ c-74', 'Na-2 @ b-74', 'Sr-2 @ d-74']",-3.7991
mp-8397,Cs1Sr1F3,2.2736,0.0679,80.6504,5.9617,95.3094,14.7083,6.4758,82.924,536.9993,12.3854,"['Cs-1 @ a-221', 'F-3 @ c-221', 'Sr-1 @ b-221']",-3.6905
mp-39387,Sr2Li2Ta4O12F2,4.6939,0.1209,143.4034,19.7863,113.7085,85.9343,3.6266,148.0973,537.0898,34.3888,"['F-2 @ e-74', 'Li-2 @ a-74', 'O-2 @ e-74', 'O-2 @ e-74', 'O-8 @ j-74', 'Sr-2 @ c-74', 'Ta-2 @ b-74', 'Ta-2 @ d-74']",-3.4223
mp-4185,Na6Sc2F12,2.1459,0.0667,77.5885,4.6256,59.6647,23.0795,6.8395,79.7344,545.3433,20.0697,"['F-4 @ e-14', 'F-4 @ e-14', 'F-4 @ e-14', 'Na-2 @ a-14', 'Na-4 @ e-14', 'Sc-2 @ d-14']",-3.5415
mp-18742,Sr4Ca2W2O12,4.1061,0.0786,163.5059,20.7,194.2457,26.0709,3.2729,167.612,548.5772,26.6338,"['Ca-2 @ a-59', 'O-4 @ e-59', 'O-4 @ e-59', 'O-4 @ f-59', 'Sr-4 @ f-59', 'W-2 @ b-59']",-2.9817
wbm-1-15653,Cs3La1F6,2.2084,0.0771,112.8927,15.8482,52.0364,36.3062,4.86,115.1011,559.3913,63.0647,"['Cs-1 @ a-139', 'Cs-2 @ d-139', 'F-2 @ e-139', 'F-4 @ j-139', 'La-1 @ b-139']",-3.4973
mp-1210433,Na4Mg2Ga2F14,2.083,0.0662,94.8894,7.517,66.4008,68.9322,5.8978,96.9724,571.9236,30.5715,"['F-2 @ e-74', 'F-4 @ h-74', 'F-8 @ j-74', 'Ga-2 @ a-74', 'Mg-2 @ c-74', 'Na-2 @ b-74', 'Na-2 @ d-74']",-3.2663
mp-21497,Pb4S2O10,3.978,0.091,172.209,138.8975,249.5365,56.2934,3.3214,176.187,585.1876,73.3495,"['O-2 @ g-12', 'O-2 @ i-12', 'O-2 @ i-12', 'O-4 @ j-12', 'Pb-2 @ i-12', 'Pb-2 @ i-12', 'S-2 @ i-12']",-1.8445
mp-768305,Sr2Hf1O4,4.0816,0.0898,155.5038,13.0733,143.798,30.147,3.7158,159.5854,592.9874,15.7874,"['Hf-1 @ a-139', 'O-2 @ c-139', 'O-2 @ e-139', 'Sr-2 @ e-139']",-3.5928
wbm-1-15662,Cs3Tm1F6,2.2339,0.0758,108.7027,9.5941,43.8831,29.7681,5.4,110.9366,599.0574,67.0535,"['Cs-1 @ a-139', 'Cs-2 @ d-139', 'F-2 @ e-139', 'F-4 @ j-139', 'Tm-1 @ b-139']",-3.556
wbm-1-15658,Cs3Sm1F6,2.2351,0.0771,117.2796,14.7786,55.2999,40.4096,5.09,119.5146,608.3295,64.2147,"['Cs-1 @ a-139', 'Cs-2 @ d-139', 'F-2 @ e-139', 'F-4 @ j-139', 'Sm-1 @ b-139']",-3.4919
mp-1221090,Na2Ca2Mg4F14,2.0382,0.0575,91.2878,10.9616,44.4311,21.7156,6.6205,93.3259,617.8643,48.8949,"['Ca-2 @ a-74', 'F-2 @ e-74', 'F-2 @ e-74', 'F-2 @ e-74', 'F-8 @ j-74', 'Mg-2 @ b-74', 'Mg-2 @ c-74', 'Na-2 @ d-74']",-3.7999
mp-27581,Pb7Cl2F12,3.8637,0.1003,144.8305,15.3089,138.5269,12.5991,4.231,148.6942,629.1253,10.1674,"['Cl-1 @ a-174', 'Cl-1 @ d-174', 'F-3 @ j-174', 'F-3 @ j-174', 'F-3 @ k-174', 'F-3 @ k-174', 'Pb-1 @ e-174', 'Pb-3 @ j-174', 'Pb-3 @ k-174']",-2.5327
mp-6319,Na4Mg2Al2F14,1.9857,0.0683,90.3841,12.9536,50.2484,57.2588,6.8185,92.3699,629.8238,42.1214,"['Al-2 @ a-74', 'F-2 @ e-74', 'F-4 @ h-74', 'F-8 @ j-74', 'Mg-2 @ c-74', 'Na-2 @ b-74', 'Na-2 @ d-74']",-3.5998
wbm-1-15649,Cs3Er1F6,2.2486,0.0761,116.5575,11.0705,52.7394,42.3658,5.36,118.8061,636.8009,66.0667,"['Cs-1 @ a-139', 'Cs-2 @ d-139', 'Er-1 @ b-139', 'F-2 @ e-139', 'F-4 @ j-139']",-3.5429
mp-29927,Pb7Br2F12,4.0413,0.1022,154.435,8.3744,172.6961,12.0294,4.0634,158.4763,643.9527,14.2198,"['Br-1 @ a-174', 'Br-1 @ d-174', 'F-3 @ j-174', 'F-3 @ j-174', 'F-3 @ k-174', 'F-3 @ k-174', 'Pb-1 @ e-174', 'Pb-3 @ j-174', 'Pb-3 @ k-174']",-2.4389
mp-7618,Cs3Y1F6,2.2318,0.076,117.1305,13.5958,55.8884,45.3527,5.4829,119.3623,654.4518,63.474,"['Cs-1 @ a-139', 'Cs-2 @ d-139', 'F-2 @ e-139', 'F-4 @ j-139', 'Y-1 @ b-139']",-3.5196
mp-1210466,Na4Mg2Sc2F14,2.2317,0.0679,116.7083,10.3552,97.5271,75.2268,6.1843,118.9401,735.561,21.413,"['F-2 @ e-74', 'F-4 @ h-74', 'F-8 @ j-74', 'Mg-2 @ c-74', 'Na-2 @ a-74', 'Na-2 @ d-74', 'Sc-2 @ b-74']",-3.723
mp-1217830,Ta2Tl2W2O12,5.3525,0.114,235.2221,47.8382,206.7713,88.3398,3.2355,240.5745,778.3789,33.8032,"['O-2 @ b-46', 'O-2 @ b-46', 'O-4 @ c-46', 'O-4 @ c-46', 'Ta-2 @ a-46', 'Tl-2 @ b-46', 'W-2 @ b-46']",-2.5193