material_id,formula,diel_elec_wren,diel_elec_ale,diel_ionic_wren,diel_ionic_ale,diel_total_wren,diel_total_ale,bandgap_pbe,diel_total_wren_indi,fom_wren,ae_indi_direct,wyckoff,e_form
mp-10942,K2Na2La2Nb2O10,4.6033,0.1122,32.2508,2.2368,75.2185,6.9265,3.6886,36.854,135.9398,38.3645,"['K-2 @ a-129', 'La-2 @ b-129', 'Na-2 @ c-129', 'Nb-2 @ c-129', 'O-2 @ c-129', 'O-8 @ j-129']",-3.0532
wbm-1-40022,Yb2Ti2O6,5.0427,0.1083,55.9404,9.1266,57.0676,3.2421,2.23,60.9832,135.9925,3.9156,"['O-2 @ e-74', 'O-4 @ f-74', 'Ti-2 @ c-74', 'Yb-2 @ e-74']",-3.7245
mp-756294,Li4Ti4O10,5.0275,0.1576,31.2898,2.2587,35.6888,4.6337,3.7459,36.3173,136.0409,0.6285,"['Li-4 @ d-37', 'O-2 @ c-37', 'O-4 @ d-37', 'O-4 @ d-37', 'Ti-4 @ d-37']",-3.1369
wbm-3-10288,Yb2In2Br6,4.0201,0.1038,39.5863,188.9366,61.6446,140.7176,3.12,43.6065,136.0522,18.0382,"['Br-2 @ c-63', 'Br-4 @ f-63', 'In-2 @ c-63', 'Yb-2 @ a-63']",-1.5396
wbm-3-53152,Ca2Ta1Ga1O6,4.3795,0.0891,31.0873,1.4885,30.633,3.1436,3.84,35.4668,136.1925,4.8338,"['Ca-2 @ i-12', 'Ga-1 @ a-12', 'O-2 @ i-12', 'O-4 @ j-12', 'Ta-1 @ d-12']",-3.1798
mp-998150,Ca1Tl1F3,2.8326,0.1184,25.3161,1.608,20.3668,1.2106,4.8398,28.1487,136.2342,7.7819,"['Ca-1 @ a-38', 'F-1 @ b-38', 'F-2 @ d-38', 'Tl-1 @ b-38']",-3.3205
mp-1190183,Li4Ca2Ta4O14,4.6349,0.1134,49.8203,3.6821,61.4224,9.5568,2.5022,54.4552,136.2579,6.9671,"['Ca-2 @ c-63', 'Li-4 @ e-63', 'O-2 @ c-63', 'O-4 @ e-63', 'O-4 @ e-63', 'O-4 @ g-63', 'Ta-4 @ g-63']",-3.2133
mp-1223520,K1Ca2Ta3O10,5.2536,0.1122,57.341,3.4344,119.492,21.3762,2.179,62.5946,136.3936,56.8974,"['Ca-1 @ a-38', 'Ca-1 @ a-38', 'K-1 @ a-38', 'O-1 @ a-38', 'O-1 @ a-38', 'O-1 @ a-38', 'O-1 @ b-38', 'O-1 @ b-38', 'O-1 @ b-38', 'O-1 @ b-38', 'O-1 @ b-38', 'O-1 @ b-38', 'O-1 @ b-38', 'Ta-1 @ b-38', 'Ta-1 @ b-38', 'Ta-1 @ b-38']",-3.3278
wbm-1-40119,W2O6,6.6179,0.2591,113.1377,251.4671,87.6871,14.7231,1.14,119.7556,136.5214,32.0685,"['O-1 @ a-38', 'O-1 @ a-38', 'O-2 @ d-38', 'O-2 @ e-38', 'W-2 @ d-38']",-2.1729
wbm-1-42005,Ba2Sm1Ta1O6,4.7984,0.0936,34.331,1.7038,34.4906,2.782,3.49,39.1294,136.5617,4.6388,"['Ba-2 @ i-12', 'O-2 @ i-12', 'O-4 @ j-12', 'Sm-1 @ a-12', 'Ta-1 @ d-12']",-3.5352
mp-1226215,Cs2Hf1W3O12,3.9181,0.0937,41.3121,4.0038,24.2848,2.9193,3.0199,45.2303,136.5909,20.9454,"['Cs-2 @ c-5', 'Hf-1 @ a-5', 'O-2 @ c-5', 'O-2 @ c-5', 'O-2 @ c-5', 'O-2 @ c-5', 'O-2 @ c-5', 'O-2 @ c-5', 'W-1 @ b-5', 'W-2 @ c-5']",-2.5933
mp-1222224,Mg1Ti1Nb2Pb4O12,6.87,0.1606,48.1383,2.8272,41.0998,5.3105,2.4839,55.0083,136.6352,13.9085,"['Mg-1 @ a-25', 'Nb-1 @ b-25', 'Nb-1 @ c-25', 'O-2 @ e-25', 'O-2 @ e-25', 'O-2 @ f-25', 'O-2 @ f-25', 'O-2 @ g-25', 'O-2 @ h-25', 'Pb-2 @ g-25', 'Pb-2 @ h-25', 'Ti-1 @ d-25']",-2.5254
mp-1079705,Ba2Lu1Ta1O6,4.7727,0.1395,35.3192,2.0057,35.2348,2.7329,3.4089,40.092,136.6695,4.8571,"['Ba-2 @ c-225', 'Lu-1 @ a-225', 'O-6 @ e-225', 'Ta-1 @ b-225']",-3.6366
wbm-1-38971,K8Nb8O24,4.9817,0.1019,35.7471,2.4523,73.8802,14.9072,3.36,40.7287,136.8486,33.1515,"['K-4 @ e-14', 'K-4 @ e-14', 'Nb-4 @ e-14', 'Nb-4 @ e-14', 'O-4 @ e-14', 'O-4 @ e-14', 'O-4 @ e-14', 'O-4 @ e-14', 'O-4 @ e-14', 'O-4 @ e-14']",-2.8615
mp-1096878,Ce4Zr4O16,5.4588,0.2656,73.3984,3.6827,59.0763,4.1204,1.7357,78.8572,136.8725,19.7809,"['Ce-4 @ c-227', 'O-12 @ f-227', 'O-2 @ a-227', 'O-2 @ b-227', 'Zr-4 @ d-227']",-3.8178
mp-14485,La2Ta14O38,5.7357,0.1427,38.1638,2.0846,44.3669,1.4178,3.124,43.8995,137.1421,0.4674,"['La-2 @ a-188', 'O-12 @ l-188', 'O-12 @ l-188', 'O-4 @ g-188', 'O-4 @ h-188', 'O-6 @ k-188', 'Ta-12 @ l-188', 'Ta-2 @ c-188']",-3.4467
mp-647557,Zr8Pb8O24,5.9087,0.1194,42.0255,1.2704,34.5554,3.9279,2.8612,47.9342,137.1494,13.3788,"['O-2 @ a-32', 'O-2 @ a-32', 'O-2 @ b-32', 'O-2 @ b-32', 'O-4 @ c-32', 'O-4 @ c-32', 'O-4 @ c-32', 'O-4 @ c-32', 'Pb-4 @ c-32', 'Pb-4 @ c-32', 'Zr-4 @ c-32', 'Zr-4 @ c-32']",-2.8549
mp-22939,Bi2Cl2O2,5.598,0.1053,46.4026,2.8117,50.6349,2.5146,2.6391,52.0006,137.2347,1.3657,"['Bi-2 @ c-129', 'Cl-2 @ c-129', 'O-2 @ a-129']",-1.6944
mp-27998,K2Nb6O16,5.8023,0.1264,48.0841,3.8853,42.9589,3.9187,2.5526,53.8863,137.5503,10.9274,"['K-2 @ c-63', 'Nb-2 @ c-63', 'Nb-4 @ f-63', 'O-2 @ c-63', 'O-2 @ c-63', 'O-4 @ f-63', 'O-4 @ f-63', 'O-4 @ f-63']",-2.9989
mp-1220555,Nd4Nb2In2O14,5.5832,0.1387,45.1454,3.1961,51.6204,5.821,2.7119,50.7285,137.5707,0.8919,"['In-2 @ a-74', 'Nb-2 @ c-74', 'Nd-2 @ b-74', 'Nd-2 @ d-74', 'O-2 @ e-74', 'O-2 @ e-74', 'O-2 @ e-74', 'O-8 @ j-74']",-3.2163
wbm-3-22260,Rb1Al1Tl2F6,2.6965,0.0887,26.0911,2.2209,19.982,1.7472,4.78,28.7876,137.6046,8.8056,"['Al-1 @ a-225', 'F-6 @ e-225', 'Rb-1 @ b-225', 'Tl-2 @ c-225']",-2.9888
mp-768310,La2Bi2O6,5.7435,0.1211,38.8686,3.7813,45.907,1.8579,3.0885,44.6121,137.7845,1.2949,"['Bi-2 @ a-161', 'La-2 @ a-161', 'O-6 @ b-161']",-2.743
wbm-1-41993,Ba2Nd1Ta1O6,4.6474,0.0975,34.6266,2.625,39.8703,3.9762,3.51,39.274,137.8517,0.5963,"['Ba-2 @ d-87', 'Nd-1 @ a-87', 'O-2 @ e-87', 'O-4 @ h-87', 'Ta-1 @ b-87']",-3.5025
wbm-1-40759,Ta2In2O8,5.7204,0.1164,37.1283,2.1042,80.9871,12.7508,3.22,42.8487,137.9729,38.1384,"['In-2 @ a-30', 'O-4 @ c-30', 'O-4 @ c-30', 'Ta-2 @ b-30']",-2.7931
wbm-1-42056,Ca2La1Ta1O6,4.4949,0.0851,35.9875,1.8193,33.7417,3.4842,3.41,40.4824,138.0451,6.7407,"['Ca-2 @ i-12', 'La-1 @ a-12', 'O-2 @ i-12', 'O-4 @ j-12', 'Ta-1 @ d-12']",-3.5163
mp-17765,Ta8Zn4O24,5.0284,0.1106,40.0061,2.424,34.0528,3.9208,3.0669,45.0345,138.1164,10.9818,"['O-8 @ d-60', 'O-8 @ d-60', 'O-8 @ d-60', 'Ta-4 @ c-60', 'Ta-4 @ c-60', 'Zn-4 @ c-60']",-3.0042
wbm-1-10854,Sn4Br4Cl4,4.7539,0.1934,46.7825,10.1573,38.9087,3.0418,2.68,51.5364,138.1174,12.6276,"['Br-4 @ c-62', 'Cl-4 @ c-62', 'Sn-4 @ c-62']",-1.0893
mp-1198462,K4Na4Nb4O4F20,2.6869,0.0923,28.7576,2.4887,11.9017,0.5556,4.3933,31.4445,138.1449,19.5428,"['F-4 @ a-33', 'F-4 @ a-33', 'F-4 @ a-33', 'F-4 @ a-33', 'F-4 @ a-33', 'K-4 @ a-33', 'Na-4 @ a-33', 'Nb-4 @ a-33', 'O-4 @ a-33']",-3.2859
mp-9870,K3Ta3B2O12,4.353,0.1142,46.9999,3.3139,41.5839,7.0204,2.691,51.3529,138.1905,9.7689,"['B-2 @ c-189', 'K-3 @ g-189', 'O-3 @ f-189', 'O-3 @ g-189', 'O-6 @ j-189', 'Ta-3 @ f-189']",-3.0693
wbm-3-36433,Li2Th1Ti2O7,5.1422,0.1199,58.2628,7.5476,39.6705,6.3998,2.18,63.405,138.2229,23.7344,"['Li-2 @ d-139', 'O-1 @ a-139', 'O-2 @ e-139', 'O-4 @ g-139', 'Th-1 @ b-139', 'Ti-2 @ e-139']",-3.4123
mp-760701,Li4Nb4O12,5.2131,0.1167,35.1704,2.1249,93.1297,8.6725,3.4238,40.3835,138.2651,52.7462,"['Li-2 @ e-15', 'Li-2 @ e-15', 'Nb-4 @ f-15', 'O-4 @ f-15', 'O-4 @ f-15', 'O-4 @ f-15']",-2.8728
mp-756591,Sm6Nb2O14,5.0475,0.1209,48.354,2.7164,44.1323,3.3214,2.5893,53.4015,138.2724,9.2692,"['Nb-2 @ a-20', 'O-2 @ b-20', 'O-2 @ b-20', 'O-2 @ b-20', 'O-4 @ c-20', 'O-4 @ c-20', 'Sm-2 @ a-20', 'Sm-4 @ c-20']",-3.6933
wbm-1-41397,Ba2Ti1O4,5.8964,0.1213,72.2561,13.5367,88.8835,6.7381,1.77,78.1525,138.3299,10.731,"['Ba-2 @ e-139', 'O-2 @ c-139', 'O-2 @ e-139', 'Ti-1 @ a-139']",-3.3502
mp-540938,Pb5I2F8,3.9915,0.1215,42.5887,4.4871,25.096,2.7313,2.9704,46.5803,138.3621,21.4843,"['F-1 @ a-160', 'F-1 @ a-160', 'F-1 @ a-160', 'F-1 @ a-160', 'F-1 @ a-160', 'F-1 @ a-160', 'F-1 @ a-160', 'F-1 @ a-160', 'I-1 @ a-160', 'I-1 @ a-160', 'Pb-1 @ a-160', 'Pb-1 @ a-160', 'Pb-1 @ a-160', 'Pb-1 @ a-160', 'Pb-1 @ a-160']",-2.2183
mp-1097061,Ca1Tl1F3,2.8366,0.1134,25.7715,3.7207,18.7088,1.9057,4.8393,28.6081,138.4432,9.8993,"['Ca-1 @ a-8', 'F-1 @ a-8', 'F-2 @ b-8', 'Tl-1 @ a-8']",-3.3205
mp-4019,Ca4Ti4O12,5.385,0.1218,54.6746,5.0063,56.3389,4.8745,2.3053,60.0597,138.4555,3.7207,"['Ca-4 @ c-62', 'O-4 @ c-62', 'O-8 @ d-62', 'Ti-4 @ a-62']",-3.5653
mp-1208995,Sc2Tl6F12,3.3628,0.0758,34.3771,4.4414,25.4369,1.8597,3.6697,37.7399,138.494,12.303,"['F-4 @ e-128', 'F-8 @ h-128', 'Sc-2 @ a-128', 'Tl-2 @ b-128', 'Tl-4 @ d-128']",-2.9462
mp-34042,K1Y3F10,2.3815,0.0704,19.6639,2.5434,19.5418,2.098,6.2847,22.0455,138.5493,2.5037,"['F-1 @ a-160', 'F-3 @ b-160', 'F-6 @ c-160', 'K-1 @ a-160', 'Y-3 @ b-160']",-4.1194
mp-1206729,Nb1Ga1Pb2O6,5.5529,0.1415,41.6153,3.8045,54.6502,5.269,2.9382,47.1681,138.5894,7.4821,"['Ga-1 @ a-225', 'Nb-1 @ b-225', 'O-6 @ e-225', 'Pb-2 @ c-225']",-2.2119
mp-6952,Rb1Yb1F3,2.1976,0.0722,17.9911,4.0066,18.8695,2.1011,6.8653,20.1887,138.6017,1.3193,"['F-3 @ c-221', 'Rb-1 @ a-221', 'Yb-1 @ b-221']",-3.9122
mp-1224654,Gd2Ti2Nb2Bi4O18,5.9883,0.1785,47.8341,2.6209,36.9029,4.0748,2.5752,53.8224,138.6034,16.9195,"['Bi-2 @ a-4', 'Bi-2 @ a-4', 'Gd-2 @ a-4', 'Nb-2 @ a-4', 'O-2 @ a-4', 'O-2 @ a-4', 'O-2 @ a-4', 'O-2 @ a-4', 'O-2 @ a-4', 'O-2 @ a-4', 'O-2 @ a-4', 'O-2 @ a-4', 'O-2 @ a-4', 'Ti-2 @ a-4']",-2.8708
mp-551918,Al2Bi2O6,6.3342,0.204,39.555,1.6666,43.2201,4.0801,3.0207,45.8892,138.6176,2.6692,"['Al-2 @ a-161', 'Bi-2 @ a-161', 'O-6 @ b-161']",-2.5097
mp-1216608,Tl5Br1Cl4,5.4609,0.1357,54.0889,3.6767,35.8662,3.0366,2.3283,59.5499,138.6499,23.6837,"['Br-1 @ a-65', 'Cl-2 @ g-65', 'Cl-2 @ g-65', 'Tl-1 @ c-65', 'Tl-2 @ h-65', 'Tl-2 @ h-65']",-1.1699
wbm-1-42008,Ba2Sm1Ta1O6,4.6599,0.0979,34.7319,2.6431,40.0002,4.0839,3.52,39.3918,138.6592,0.6084,"['Ba-2 @ d-87', 'O-2 @ e-87', 'O-4 @ h-87', 'Sm-1 @ a-87', 'Ta-1 @ b-87']",-3.5349
wbm-1-15332,Ca2Mg2F8,2.3403,0.0718,18.7283,6.6793,9.4418,0.4982,6.59,21.0686,138.8421,11.6268,"['Ca-1 @ a-8', 'Ca-1 @ a-8', 'F-1 @ a-8', 'F-1 @ a-8', 'F-1 @ a-8', 'F-1 @ a-8', 'F-1 @ a-8', 'F-1 @ a-8', 'F-1 @ a-8', 'F-1 @ a-8', 'Mg-1 @ a-8', 'Mg-1 @ a-8']",-3.9853
wbm-1-41995,Ba2Pr1Ta1O6,4.8174,0.0927,35.1003,1.5703,34.2513,2.8569,3.48,39.9177,138.9136,5.6664,"['Ba-2 @ i-12', 'O-2 @ i-12', 'O-4 @ j-12', 'Pr-1 @ a-12', 'Ta-1 @ d-12']",-3.4847
wbm-2-16600,Sm2Pb1F8,2.7497,0.0933,24.5273,2.4587,16.4497,1.173,5.1,27.277,139.1127,10.8273,"['F-2 @ i-12', 'F-2 @ i-12', 'F-2 @ i-12', 'F-2 @ i-12', 'Pb-1 @ a-12', 'Sm-2 @ i-12']",-3.9627
mp-1205600,Ba2Nd1Ta1O6,4.8117,0.0934,34.8396,1.6871,34.7072,2.8594,3.5087,39.6513,139.1246,4.9441,"['Ba-2 @ i-12', 'Nd-1 @ a-12', 'O-2 @ i-12', 'O-4 @ j-12', 'Ta-1 @ d-12']",-3.5037
mp-30236,Tl16As16Se32,9.2155,0.2977,111.724,11.8431,46.7057,4.2032,1.1514,120.9395,139.2497,74.2338,"['As-4 @ e-14', 'As-4 @ e-14', 'As-4 @ e-14', 'As-4 @ e-14', 'Se-4 @ e-14', 'Se-4 @ e-14', 'Se-4 @ e-14', 'Se-4 @ e-14', 'Se-4 @ e-14', 'Se-4 @ e-14', 'Se-4 @ e-14', 'Se-4 @ e-14', 'Tl-4 @ e-14', 'Tl-4 @ e-14', 'Tl-4 @ e-14', 'Tl-4 @ e-14']",-0.2447
mp-1202132,Sr5Ti7O19,5.9096,0.1515,69.9951,7.2759,95.2369,19.1013,1.8352,75.9047,139.3003,19.3322,"['O-1 @ a-47', 'O-2 @ i-47', 'O-2 @ j-47', 'O-2 @ j-47', 'O-4 @ x-47', 'O-4 @ x-47', 'O-4 @ x-47', 'Sr-1 @ c-47', 'Sr-2 @ i-47', 'Sr-2 @ j-47', 'Ti-1 @ e-47', 'Ti-2 @ k-47', 'Ti-2 @ l-47', 'Ti-2 @ l-47']",-3.4595
mp-769582,Sr10Ta8O30,4.4379,0.1439,37.0534,2.0292,40.837,3.2635,3.3579,41.4913,139.3235,0.6543,"['O-12 @ g-165', 'O-12 @ g-165', 'O-6 @ f-165', 'Sr-2 @ a-165', 'Sr-4 @ d-165', 'Sr-4 @ d-165', 'Ta-4 @ c-165', 'Ta-4 @ d-165']",-3.4893
mp-752467,Nb2O4F2,5.5966,0.1245,56.8387,5.8805,69.4329,12.7416,2.2316,62.4353,139.3305,6.9977,"['F-2 @ a-9', 'Nb-2 @ a-9', 'O-2 @ a-9', 'O-2 @ a-9']",-3.1831
mp-755089,Zr4O8,5.2951,0.1086,29.8862,1.6319,28.2908,1.39,3.9644,35.1813,139.4726,6.8905,"['O-4 @ c-62', 'O-4 @ c-62', 'Zr-4 @ c-62']",-3.8014
mp-36890,Ta1Bi3O7,6.5128,0.1265,61.2032,36.0836,65.4004,42.053,2.0597,67.716,139.4747,2.3156,"['Bi-1 @ a-1', 'Bi-1 @ a-1', 'Bi-1 @ a-1', 'O-1 @ a-1', 'O-1 @ a-1', 'O-1 @ a-1', 'O-1 @ a-1', 'O-1 @ a-1', 'O-1 @ a-1', 'O-1 @ a-1', 'Ta-1 @ a-1']",-2.0827
mp-570609,Tl4Ga4Cl16,3.4038,0.0919,28.995,2.2549,42.0842,4.4795,4.3067,32.3987,139.5316,9.6855,"['Cl-4 @ c-62', 'Cl-4 @ c-62', 'Cl-8 @ d-62', 'Ga-4 @ c-62', 'Tl-4 @ c-62']",-1.5522
mp-11321,Y6Ta2O14,4.7511,0.1059,35.135,1.7922,32.5979,3.1398,3.499,39.8861,139.5615,7.2883,"['O-2 @ a-20', 'O-2 @ a-20', 'O-2 @ a-20', 'O-4 @ c-20', 'O-4 @ c-20', 'Ta-2 @ b-20', 'Y-2 @ b-20', 'Y-4 @ c-20']",-3.8484
mp-1523208,Ba1Mn1Nb4O12,6.9246,0.1553,67.2464,6.7743,71.0412,8.4978,1.8824,74.1711,139.6196,3.1298,"['Ba-1 @ a-38', 'Mn-1 @ b-38', 'Nb-4 @ f-38', 'O-2 @ c-38', 'O-2 @ c-38', 'O-2 @ d-38', 'O-2 @ e-38', 'O-4 @ f-38']",-2.9246
wbm-3-56066,Sr1Ti1Ge2O7,3.7974,0.0718,45.0301,6.6926,19.4731,1.3547,2.86,48.8275,139.6467,29.3545,"['Ge-2 @ c-5', 'O-1 @ a-5', 'O-2 @ c-5', 'O-2 @ c-5', 'O-2 @ c-5', 'Sr-1 @ b-5', 'Ti-1 @ b-5']",-2.7502
mp-29888,Er2Cl6O24,3.1743,0.1467,24.6168,6.1568,30.6897,2.8914,5.0285,27.7911,139.7475,2.8986,"['Cl-6 @ h-176', 'Er-2 @ c-176', 'O-12 @ i-176', 'O-6 @ h-176', 'O-6 @ h-176']",-1.0895
mp-552098,Bi2Se1O2,12.9556,0.4051,338.2699,35.0008,354.5325,37.5841,0.3987,351.2255,140.0336,3.307,"['Bi-2 @ e-139', 'O-2 @ d-139', 'Se-1 @ a-139']",-1.2625
mp-998711,Tl2Ge2F6,3.0414,0.0916,37.8599,7.6468,73.1946,10.9924,3.4249,40.9012,140.0827,32.2933,"['F-2 @ e-11', 'F-4 @ f-11', 'Ge-2 @ e-11', 'Tl-2 @ e-11']",-2.3264
mp-23291,Pb4Cl8,4.7732,0.1246,31.7888,3.9221,35.6756,2.0291,3.8334,36.562,140.1569,0.8864,"['Cl-4 @ c-62', 'Cl-4 @ c-62', 'Pb-4 @ c-62']",-1.5421
wbm-1-23888,Ba1Li2Ta2O7,4.5091,0.0944,60.6843,7.2801,78.0407,12.1743,2.15,65.1934,140.1659,12.8473,"['Ba-1 @ a-139', 'Li-2 @ d-139', 'O-1 @ b-139', 'O-2 @ e-139', 'O-4 @ g-139', 'Ta-2 @ e-139']",-3.1878
mp-557816,Ba10Li4W6O30,4.1301,0.0974,57.0135,2.9132,28.3802,2.9145,2.2925,61.1436,140.1716,32.7633,"['Ba-2 @ a-186', 'Ba-2 @ a-186', 'Ba-2 @ b-186', 'Ba-2 @ b-186', 'Ba-2 @ b-186', 'Li-2 @ a-186', 'Li-2 @ b-186', 'O-6 @ c-186', 'O-6 @ c-186', 'O-6 @ c-186', 'O-6 @ c-186', 'O-6 @ c-186', 'W-2 @ b-186', 'W-2 @ b-186', 'W-2 @ b-186']",-2.7813
mp-769802,Ba2Zr7O16,4.7859,0.0946,33.0317,1.6304,38.4429,2.0901,3.7069,37.8176,140.1862,0.6252,"['Ba-2 @ c-148', 'O-2 @ c-148', 'O-2 @ c-148', 'O-6 @ f-148', 'O-6 @ f-148', 'Zr-1 @ a-148', 'Zr-6 @ f-148']",-3.7268
mp-556489,Ta4Sn2O12,6.1753,0.1151,52.8907,2.7321,62.2277,7.9916,2.3734,59.066,140.1872,3.1617,"['O-2 @ a-9', 'O-2 @ a-9', 'O-2 @ a-9', 'O-2 @ a-9', 'O-2 @ a-9', 'O-2 @ a-9', 'Sn-2 @ a-9', 'Ta-2 @ a-9', 'Ta-2 @ a-9']",-2.9956
mp-1190625,Li2Ti6O13,5.4005,0.1786,43.147,2.5477,35.5755,4.2889,2.8884,48.5475,140.2245,12.9719,"['Li-2 @ i-12', 'O-1 @ a-12', 'O-2 @ i-12', 'O-2 @ i-12', 'O-2 @ i-12', 'O-2 @ i-12', 'O-2 @ i-12', 'O-2 @ i-12', 'Ti-2 @ i-12', 'Ti-2 @ i-12', 'Ti-2 @ i-12']",-3.3478
mp-769349,Ba1Ta6O16,5.8446,0.1237,55.7716,3.8224,45.8385,3.2781,2.2768,61.6162,140.2878,15.7777,"['Ba-1 @ a-38', 'O-1 @ a-38', 'O-1 @ a-38', 'O-1 @ b-38', 'O-1 @ b-38', 'O-2 @ d-38', 'O-2 @ d-38', 'O-2 @ e-38', 'O-2 @ e-38', 'O-2 @ e-38', 'O-2 @ e-38', 'Ta-1 @ b-38', 'Ta-1 @ b-38', 'Ta-2 @ e-38', 'Ta-2 @ e-38']",-3.3907
mp-12427,Sr2Ta1Ga1O6,4.4654,0.0852,30.1927,2.1326,41.7014,4.9257,4.0487,34.6582,140.3205,7.0432,"['Ga-1 @ a-87', 'O-2 @ e-87', 'O-4 @ h-87', 'Sr-2 @ d-87', 'Ta-1 @ b-87']",-3.187
wbm-1-3712,Tl8As8Se16,9.7071,0.407,103.4868,8.32,43.416,3.7198,1.24,113.1939,140.3604,69.7778,"['As-4 @ e-14', 'As-4 @ e-14', 'Se-4 @ e-14', 'Se-4 @ e-14', 'Se-4 @ e-14', 'Se-4 @ e-14', 'Tl-4 @ e-14', 'Tl-4 @ e-14']",-0.2482
mp-1228281,Ba6Zr2Ta8O30,5.1897,0.105,51.7117,3.4472,54.2029,5.2457,2.4682,56.9014,140.444,2.6985,"['Ba-2 @ a-100', 'Ba-4 @ c-100', 'O-2 @ b-100', 'O-4 @ c-100', 'O-8 @ d-100', 'O-8 @ d-100', 'O-8 @ d-100', 'Ta-8 @ d-100', 'Zr-2 @ b-100']",-3.4936
wbm-1-37719,Bi4Se2O4,12.9556,0.4051,338.27,35.0009,354.5325,37.5841,0.4,351.2256,140.4902,3.3069,"['Bi-4 @ e-139', 'O-4 @ d-139', 'Se-2 @ a-139']",-1.2619
mp-17177,Nb8Zn4O24,5.7834,0.1105,36.982,2.137,33.0583,3.4005,3.2853,42.7654,140.4972,9.7071,"['Nb-8 @ d-60', 'O-8 @ d-60', 'O-8 @ d-60', 'O-8 @ d-60', 'Zn-4 @ c-60']",-2.775
wbm-1-15190,Yb1Tl1F3,2.838,0.0995,29.4657,3.0916,19.8115,2.1381,4.35,32.3037,140.5211,12.4922,"['F-1 @ a-8', 'F-2 @ b-8', 'Tl-1 @ a-8', 'Yb-1 @ a-8']",-3.5021
mp-31120,Dy4Sc4O12,4.8647,0.0968,26.6529,1.27,27.2653,1.1791,4.4598,31.5177,140.5625,4.2524,"['Dy-4 @ c-62', 'O-4 @ c-62', 'O-8 @ d-62', 'Sc-4 @ a-62']",-3.9725
mp-12287,La6Nb2O14,4.9718,0.1035,46.6192,3.1196,36.283,2.0281,2.7255,51.591,140.6112,15.308,"['La-2 @ a-63', 'La-4 @ g-63', 'Nb-2 @ b-63', 'O-2 @ c-63', 'O-4 @ g-63', 'O-8 @ h-63']",-3.7274
mp-1219286,Sc1Sb1Pb2O6,5.3848,0.0896,39.8867,2.5762,31.9734,2.3058,3.107,45.2714,140.6583,13.298,"['O-2 @ c-44', 'O-2 @ c-44', 'O-2 @ d-44', 'Pb-2 @ d-44', 'Sb-1 @ a-44', 'Sc-1 @ b-44']",-2.2781
mp-5308,La4Ta12O36,5.5897,0.1076,45.5686,2.1283,37.52,1.8476,2.7516,51.1584,140.7673,13.6384,"['La-4 @ c-62', 'O-4 @ c-62', 'O-4 @ c-62', 'O-4 @ c-62', 'O-8 @ d-62', 'O-8 @ d-62', 'O-8 @ d-62', 'Ta-4 @ a-62', 'Ta-8 @ d-62']",-3.5248
mp-555785,Nd4Ti4O14,5.0388,0.18,46.2753,2.2337,78.0693,8.1511,2.7435,51.314,140.7801,26.7553,"['Nd-4 @ c-227', 'O-12 @ f-227', 'O-2 @ a-227', 'Ti-4 @ d-227']",-3.7005
wbm-1-43453,Ba3Zr2O7,4.7735,0.0908,41.7422,1.9468,42.7991,4.0827,3.03,46.5157,140.9426,3.7166,"['Ba-1 @ a-139', 'Ba-2 @ e-139', 'O-1 @ b-139', 'O-2 @ e-139', 'O-4 @ g-139', 'Zr-2 @ e-139']",-3.5291
mp-1191890,Gd6Nb2O14,5.0187,0.1447,55.4824,5.8618,46.6695,3.1328,2.3304,60.501,140.9916,13.8315,"['Gd-2 @ a-63', 'Gd-4 @ g-63', 'Nb-2 @ b-63', 'O-2 @ c-63', 'O-2 @ c-63', 'O-2 @ c-63', 'O-8 @ h-63']",-3.6978
wbm-4-25898,Ca2Ta1Al1O6,4.1977,0.0873,32.3292,1.8638,30.4758,3.7181,3.86,36.5269,140.9939,6.0511,"['Al-1 @ a-12', 'Ca-2 @ i-12', 'O-2 @ i-12', 'O-4 @ j-12', 'Ta-1 @ d-12']",-3.4916
mp-1189614,Ba4Th4O12,4.6522,0.0992,30.2341,1.8777,23.4745,0.9766,4.044,34.8863,141.0802,11.4118,"['Ba-4 @ c-62', 'O-4 @ c-62', 'O-8 @ d-62', 'Th-4 @ a-62']",-3.7843
mp-31119,Tb4Sc4O12,4.8975,0.0967,26.9045,1.2534,27.584,1.1641,4.4378,31.802,141.131,4.218,"['O-4 @ c-62', 'O-8 @ d-62', 'Sc-4 @ a-62', 'Tb-4 @ c-62']",-3.9669
mp-1223345,K1Na1Nb2O6,5.9033,0.1268,66.8317,11.7159,27.7014,2.4377,1.941,72.7349,141.1785,45.0336,"['K-1 @ a-8', 'Na-1 @ a-8', 'Nb-2 @ b-8', 'O-1 @ a-8', 'O-1 @ a-8', 'O-2 @ b-8', 'O-2 @ b-8']",-2.84
mp-677732,Nd2Ti4Cd2O12F2,5.5549,0.1229,79.6579,22.8122,84.6368,38.8388,1.6568,85.2128,141.1805,0.576,"['Cd-2 @ a-74', 'F-2 @ e-74', 'Nd-2 @ c-74', 'O-2 @ e-74', 'O-2 @ e-74', 'O-8 @ j-74', 'Ti-2 @ b-74', 'Ti-2 @ d-74']",-3.1769
mp-775910,Zr10O20,5.4763,0.1356,37.1953,2.2438,28.6208,1.6939,3.3126,42.6715,141.3537,14.0507,"['O-2 @ a-85', 'O-2 @ b-85', 'O-8 @ g-85', 'O-8 @ g-85', 'Zr-2 @ c-85', 'Zr-8 @ g-85']",-3.7687
mp-755165,Y4Sc4O12,4.9115,0.0938,26.9952,1.2748,28.1263,1.2566,4.4314,31.9066,141.3911,3.7804,"['O-4 @ c-62', 'O-8 @ d-62', 'Sc-4 @ a-62', 'Y-4 @ c-62']",-3.9503
mp-1218520,Sr2Al4O8,3.2436,0.0774,32.9233,2.0258,12.4973,0.5754,3.913,36.1669,141.521,23.6696,"['Al-2 @ c-5', 'Al-2 @ c-5', 'O-1 @ a-5', 'O-1 @ b-5', 'O-2 @ c-5', 'O-2 @ c-5', 'O-2 @ c-5', 'Sr-2 @ c-5']",-3.4487
mp-1209566,Pr2Ta14O38,5.7347,0.1415,39.0152,2.1864,44.1311,1.4624,3.1645,44.7498,141.6108,0.6187,"['O-12 @ l-188', 'O-12 @ l-188', 'O-4 @ g-188', 'O-4 @ h-188', 'O-6 @ k-188', 'Pr-2 @ a-188', 'Ta-12 @ l-188', 'Ta-2 @ c-188']",-3.4306
mp-850779,Ho2Ta14O38,5.6863,0.1424,38.9718,1.9656,43.705,1.089,3.1745,44.6581,141.7672,0.9531,"['Ho-2 @ a-188', 'O-12 @ l-188', 'O-12 @ l-188', 'O-4 @ g-188', 'O-4 @ h-188', 'O-6 @ k-188', 'Ta-12 @ l-188', 'Ta-2 @ c-188']",-3.4292
mp-23041,Sb4S4I4,8.17,0.1914,76.4775,4.2408,81.7913,4.5424,1.6749,84.6475,141.7761,2.8562,"['I-4 @ c-62', 'S-4 @ c-62', 'Sb-4 @ c-62']",-0.5333
mp-766838,Nb8Ni4O24,6.7834,0.1904,62.8497,3.1184,48.0131,6.8733,2.0366,69.6331,141.8147,21.62,"['Nb-8 @ e-136', 'Ni-4 @ a-136', 'O-16 @ j-136', 'O-8 @ f-136']",-2.5948
mp-1120749,Ba2Nb8O22,6.3258,0.2069,46.986,2.8859,39.2602,1.9806,2.6601,53.3119,141.8149,14.0516,"['Ba-2 @ c-182', 'Nb-2 @ d-182', 'Nb-6 @ g-182', 'O-12 @ i-182', 'O-4 @ f-182', 'O-6 @ g-182']",-3.1235
mp-772036,Y2Ta14O38,5.6906,0.1419,39.1716,2.035,43.6493,1.1174,3.1646,44.8622,141.971,1.2129,"['O-12 @ l-188', 'O-12 @ l-188', 'O-4 @ g-188', 'O-4 @ h-188', 'O-6 @ k-188', 'Ta-12 @ l-188', 'Ta-2 @ a-188', 'Y-2 @ c-188']",-3.4273
mp-6500,K2Rb4Sc2F12,2.2146,0.0714,18.5014,2.1769,9.0285,0.6483,6.8563,20.7159,142.0346,11.6875,"['F-4 @ e-14', 'F-4 @ e-14', 'F-4 @ e-14', 'K-2 @ a-14', 'Rb-4 @ e-14', 'Sc-2 @ d-14']",-3.5897
mp-31630,Ba8Ta4Cr4O24,4.8596,0.1147,59.7071,6.0255,33.1067,1.9506,2.2009,64.5666,142.1047,31.4599,"['Ba-2 @ a-194', 'Ba-2 @ c-194', 'Ba-4 @ f-194', 'Cr-4 @ e-194', 'O-12 @ k-194', 'O-6 @ g-194', 'O-6 @ h-194', 'Ta-4 @ f-194']",-3.1794