material_id,formula,diel_elec_wren,diel_elec_ale,diel_ionic_wren,diel_ionic_ale,diel_total_wren,diel_total_ale,bandgap_pbe,diel_total_wren_indi,fom_wren,ae_indi_direct,wyckoff,e_form
mp-1565616,Ca8Ta4Cr4O24,4.8022,0.1091,55.8332,5.4627,42.9662,5.5719,2.8523,60.6353,172.9502,17.6691,"['Ca-4 @ e-11', 'Ca-4 @ e-11', 'Cr-4 @ a-11', 'O-4 @ e-11', 'O-4 @ e-11', 'O-8 @ f-11', 'O-8 @ f-11', 'Ta-4 @ d-11']",-3.2217
mp-774479,Li1Ca2Ta3O10,4.5135,0.0892,74.5354,21.1881,103.5186,46.0634,2.189,79.0489,173.038,24.4697,"['Ca-2 @ e-119', 'Li-1 @ c-119', 'O-2 @ e-119', 'O-2 @ e-119', 'O-2 @ f-119', 'O-2 @ f-119', 'O-2 @ f-119', 'Ta-1 @ a-119', 'Ta-2 @ e-119']",-3.3224
mp-1220551,Nb4Ag1Bi5O18,7.5194,0.2048,73.3629,6.9612,59.8301,4.3035,2.1394,80.8823,173.0396,21.0522,"['Ag-1 @ a-8', 'Bi-1 @ a-8', 'Bi-2 @ b-8', 'Bi-2 @ b-8', 'Nb-2 @ b-8', 'Nb-2 @ b-8', 'O-1 @ a-8', 'O-1 @ a-8', 'O-2 @ b-8', 'O-2 @ b-8', 'O-2 @ b-8', 'O-2 @ b-8', 'O-2 @ b-8', 'O-2 @ b-8', 'O-2 @ b-8', 'O-2 @ b-8']",-2.3153
mp-1222828,La1Nb2Ag1O7,5.3882,0.1231,139.0237,15.1882,107.1718,25.0046,1.2,144.4119,173.2943,37.2402,"['Ag-1 @ a-119', 'La-1 @ c-119', 'Nb-2 @ f-119', 'O-1 @ d-119', 'O-2 @ e-119', 'O-2 @ e-119', 'O-2 @ f-119']",-2.9046
mp-1223769,K4Ta3Nb1O12,4.1467,0.1173,85.3704,15.0098,139.4169,32.471,1.936,89.5171,173.3051,49.8998,"['K-2 @ c-166', 'K-2 @ c-166', 'Nb-1 @ a-166', 'O-6 @ h-166', 'O-6 @ h-166', 'Ta-1 @ b-166', 'Ta-2 @ c-166']",-3.0277
mp-569152,Sn4Cl8,4.4808,0.1736,51.3189,3.3913,56.4299,3.8453,3.1079,55.7998,173.42,0.6301,"['Cl-4 @ c-62', 'Cl-4 @ c-62', 'Sn-4 @ c-62']",-1.3894
mp-1192586,Th4Tl4F20,2.7425,0.0827,32.8912,2.8158,19.816,1.5657,4.8686,35.6337,173.4864,15.8177,"['F-4 @ e-14', 'F-4 @ e-14', 'F-4 @ e-14', 'F-4 @ e-14', 'F-4 @ e-14', 'Th-4 @ e-14', 'Tl-4 @ e-14']",-3.8346
wbm-3-21968,Pb4F8,3.3323,0.0885,36.1903,6.0708,34.5353,2.1595,4.39,39.5226,173.5043,4.9873,"['F-8 @ c-225', 'Pb-4 @ a-225']",-2.701
mp-1218518,Sr3La1Nb3O12,5.1899,0.107,50.9377,3.2115,51.1541,4.3088,3.094,56.1276,173.6589,4.9735,"['La-1 @ a-146', 'Nb-1 @ a-146', 'Nb-1 @ a-146', 'Nb-1 @ a-146', 'O-3 @ b-146', 'O-3 @ b-146', 'O-3 @ b-146', 'O-3 @ b-146', 'Sr-1 @ a-146', 'Sr-1 @ a-146', 'Sr-1 @ a-146']",-3.3783
mp-754403,Zr2O4,5.2473,0.0958,41.0422,1.5113,48.4345,2.8445,3.7569,46.2895,173.905,2.145,"['O-4 @ e-141', 'Zr-2 @ a-141']",-3.8089
mp-556807,Ba2W2O8,4.2801,0.0725,66.5887,21.1592,36.1358,4.1824,2.4574,70.8688,174.153,34.733,"['Ba-2 @ c-63', 'O-2 @ a-63', 'O-2 @ c-63', 'O-4 @ f-63', 'W-2 @ c-63']",-2.6677
mp-1228014,Ca1Ti2Pb1O6,5.7845,0.1473,72.3432,8.6206,39.7203,6.8071,2.2307,78.1277,174.2794,38.4074,"['Ca-1 @ a-38', 'O-1 @ b-38', 'O-1 @ b-38', 'O-2 @ d-38', 'O-2 @ e-38', 'Pb-1 @ a-38', 'Ti-2 @ e-38']",-3.1422
mp-6144,Na2La2Ti3O10,5.148,0.1191,78.5661,24.8699,88.3137,13.9109,2.083,83.7142,174.3766,4.5995,"['La-2 @ e-139', 'Na-2 @ e-139', 'O-2 @ c-139', 'O-2 @ e-139', 'O-2 @ e-139', 'O-4 @ g-139', 'Ti-1 @ a-139', 'Ti-2 @ e-139']",-3.424
mp-1173397,Sc6Nb2O14,5.6729,0.1138,60.8343,7.0302,62.2649,5.4474,2.622,66.5072,174.382,4.2423,"['Nb-2 @ e-13', 'O-2 @ f-13', 'O-4 @ g-13', 'O-4 @ g-13', 'O-4 @ g-13', 'Sc-2 @ b-13', 'Sc-4 @ g-13']",-3.6021
mp-1222190,Mg2Nb3Bi3O14,6.0554,0.1563,61.0984,4.9745,43.7338,3.9358,2.5981,67.1539,174.4725,23.4201,"['Bi-3 @ d-166', 'Mg-1 @ a-166', 'Mg-1 @ b-166', 'Nb-3 @ e-166', 'O-2 @ c-166', 'O-6 @ h-166', 'O-6 @ h-166']",-2.5705
wbm-1-41324,Sn2W2O8,6.0515,0.1436,56.2001,19.0281,37.0814,3.1546,2.81,62.2516,174.9269,25.1702,"['O-2 @ a-9', 'O-2 @ a-9', 'O-2 @ a-9', 'O-2 @ a-9', 'Sn-2 @ a-9', 'W-2 @ a-9']",-1.9817
mp-1195166,Ta14Bi2O38,6.0804,0.1653,50.7584,3.28,43.7723,3.731,3.0816,56.8388,175.1545,13.0665,"['Bi-2 @ a-188', 'O-12 @ l-188', 'O-12 @ l-188', 'O-4 @ g-188', 'O-4 @ h-188', 'O-6 @ k-188', 'Ta-12 @ l-188', 'Ta-2 @ c-188']",-3.2086
mp-3249,La4Ti3O12,5.557,0.1747,53.182,3.3931,39.8095,1.6635,2.9836,58.7389,175.2535,18.9294,"['La-2 @ c-148', 'La-2 @ c-148', 'O-6 @ f-148', 'O-6 @ f-148', 'Ti-1 @ a-148', 'Ti-2 @ c-148']",-3.7862
mp-1219213,Sm4Sc2Ta2O14,5.2941,0.1204,46.9962,2.0679,76.4053,19.84,3.355,52.2902,175.4337,24.115,"['O-2 @ e-74', 'O-2 @ e-74', 'O-2 @ e-74', 'O-8 @ j-74', 'Sc-2 @ a-74', 'Sm-2 @ b-74', 'Sm-2 @ c-74', 'Ta-2 @ d-74']",-3.8028
mp-315,Pb1F2,3.3323,0.0885,36.1903,6.0708,34.5353,2.1595,4.44,39.5226,175.4805,4.9873,"['F-2 @ c-225', 'Pb-1 @ a-225']",-2.7017
mp-998552,Ba1Hf1O3,4.7476,0.0961,39.8269,2.4649,40.1517,3.4616,3.941,44.5745,175.6682,4.4229,"['Ba-1 @ a-221', 'Hf-1 @ b-221', 'O-3 @ c-221']",-3.7959
mp-752676,Ti2Bi4O10,5.9669,0.122,62.1943,5.9321,59.3619,6.6238,2.5795,68.1613,175.822,8.7994,"['Bi-4 @ b-36', 'O-2 @ a-36', 'O-4 @ b-36', 'O-4 @ b-36', 'Ti-2 @ a-36']",-2.3812
mp-1223343,K4Ti4Nb4O20,4.8785,0.0969,60.2216,15.0905,49.1228,8.8982,2.7073,65.1001,176.2455,15.9773,"['K-4 @ c-62', 'Nb-4 @ c-62', 'O-4 @ c-62', 'O-4 @ c-62', 'O-4 @ c-62', 'O-4 @ c-62', 'O-4 @ c-62', 'Ti-4 @ c-62']",-3.1197
mp-756810,Sr3Ta4O12F2,4.6691,0.1344,48.8397,1.9933,44.7458,3.1882,3.2939,53.5089,176.2528,8.7631,"['F-2 @ c-166', 'O-6 @ h-166', 'O-6 @ h-166', 'Sr-3 @ d-166', 'Ta-1 @ b-166', 'Ta-3 @ e-166']",-3.5917
mp-557203,Sr8Zr8O24,4.7588,0.1046,47.6936,2.0601,48.6971,4.9776,3.3637,52.4524,176.4342,3.7553,"['O-12 @ b-198', 'O-12 @ b-198', 'Sr-4 @ a-198', 'Sr-4 @ a-198', 'Zr-4 @ a-198', 'Zr-4 @ a-198']",-3.6167
wbm-1-38520,Cs4Th2O6,3.9642,0.0671,64.4961,4.4366,80.6874,10.924,2.58,68.4603,176.6276,12.2271,"['Cs-4 @ b-36', 'O-2 @ a-36', 'O-4 @ b-36', 'Th-2 @ a-36']",-2.7958
mp-555050,Ba4Nb8O24,5.8753,0.1141,53.6946,4.5568,34.72,2.7128,2.9713,59.5698,176.9999,24.8499,"['Ba-2 @ a-20', 'Ba-2 @ a-20', 'Nb-4 @ c-20', 'Nb-4 @ c-20', 'O-2 @ b-20', 'O-2 @ b-20', 'O-4 @ c-20', 'O-4 @ c-20', 'O-4 @ c-20', 'O-4 @ c-20', 'O-4 @ c-20']",-3.216
mp-1225952,Cs2Nb2W2O12,4.9099,0.1276,55.8985,3.0298,47.8441,7.4766,2.9188,60.8084,177.4876,12.9643,"['Cs-2 @ e-74', 'Nb-2 @ a-74', 'O-2 @ e-74', 'O-2 @ e-74', 'O-8 @ j-74', 'W-2 @ c-74']",-2.632
mp-703260,Pb2W2O8,5.8918,0.1097,42.7683,5.2604,59.6711,15.0106,3.656,48.6601,177.9014,11.0109,"['O-1 @ a-1', 'O-1 @ a-1', 'O-1 @ a-1', 'O-1 @ a-1', 'O-1 @ a-1', 'O-1 @ a-1', 'O-1 @ a-1', 'O-1 @ a-1', 'Pb-1 @ a-1', 'Pb-1 @ a-1', 'W-1 @ a-1', 'W-1 @ a-1']",-1.9958
mp-1190968,Y6Ta2O14,4.7194,0.1319,46.1811,3.2591,42.0533,2.6782,3.4962,50.9005,177.9582,8.8471,"['O-2 @ c-63', 'O-2 @ c-63', 'O-2 @ c-63', 'O-8 @ h-63', 'Ta-2 @ a-63', 'Y-2 @ b-63', 'Y-4 @ g-63']",-3.8427
mp-1218851,Sr2Ca1Ti3O9,5.9296,0.141,92.2007,17.3776,103.1878,66.3798,1.8153,98.1303,178.1359,5.0575,"['Ca-1 @ a-123', 'O-1 @ c-123', 'O-2 @ e-123', 'O-2 @ h-123', 'O-4 @ i-123', 'Sr-2 @ g-123', 'Ti-1 @ d-123', 'Ti-2 @ h-123']",-3.5392
mp-1522453,Ba4Sr4Nd4Nb4O24,4.9912,0.1329,55.0363,3.6988,38.655,3.5369,2.9744,60.0274,178.5456,21.3724,"['Ba-2 @ a-48', 'Ba-2 @ b-48', 'Nb-4 @ e-48', 'Nd-4 @ f-48', 'O-8 @ m-48', 'O-8 @ m-48', 'O-8 @ m-48', 'Sr-2 @ c-48', 'Sr-2 @ d-48']",-3.3692
mp-1205684,K1Sc1Tl2F6,2.86,0.0977,33.9874,3.1407,38.3558,2.2208,4.8477,36.8474,178.6253,1.5083,"['F-6 @ e-225', 'K-1 @ a-225', 'Sc-1 @ b-225', 'Tl-2 @ c-225']",-3.1527
mp-1189438,Tl2Bi4Cl14,3.7628,0.0942,50.093,11.014,14.8137,1.4058,3.3238,53.8558,179.0059,39.0421,"['Bi-2 @ i-2', 'Bi-2 @ i-2', 'Cl-2 @ i-2', 'Cl-2 @ i-2', 'Cl-2 @ i-2', 'Cl-2 @ i-2', 'Cl-2 @ i-2', 'Cl-2 @ i-2', 'Cl-2 @ i-2', 'Tl-2 @ i-2']",-1.4159
wbm-1-20426,Ca1Ta2H2O7,4.4735,0.096,79.1749,15.8659,100.6043,23.9497,2.14,83.6484,179.0075,16.9559,"['Ca-1 @ a-139', 'H-2 @ e-139', 'O-1 @ b-139', 'O-2 @ e-139', 'O-4 @ g-139', 'Ta-2 @ e-139']",-2.8687
mp-861607,K2Na2Nd2Ta2O10,4.216,0.1083,46.3557,6.2108,93.1396,9.3077,3.5431,50.5716,179.1804,42.568,"['K-2 @ a-129', 'Na-2 @ c-129', 'Nd-2 @ b-129', 'O-2 @ c-129', 'O-8 @ j-129', 'Ta-2 @ c-129']",-3.1232
wbm-1-38359,Ca8Zr8O24,4.8168,0.1051,45.7489,2.7987,52.2053,8.615,3.55,50.5657,179.5083,1.6396,"['Ca-4 @ a-198', 'Ca-4 @ a-198', 'O-12 @ b-198', 'O-12 @ b-198', 'Zr-4 @ a-198', 'Zr-4 @ a-198']",-3.5595
mp-1297951,Al8Ni4O16,4.5508,0.1168,44.8525,2.1279,40.355,9.111,3.6371,49.4032,179.6845,9.0482,"['Al-2 @ a-166', 'Al-6 @ d-166', 'Ni-4 @ c-166', 'O-12 @ h-166', 'O-4 @ c-166']",-2.7352
wbm-1-42070,Ca2Ta1Bi1O6,4.7707,0.1047,72.0252,6.0675,50.334,10.4731,2.34,76.7959,179.7024,26.4619,"['Bi-1 @ a-12', 'Ca-2 @ i-12', 'O-2 @ i-12', 'O-4 @ j-12', 'Ta-1 @ d-12']",-2.9647
mp-861944,K2Na2Pr2Ta2O10,4.1586,0.1071,47.4243,7.0821,96.946,10.2161,3.4885,51.5829,179.9469,45.3632,"['K-2 @ a-129', 'Na-2 @ c-129', 'O-2 @ c-129', 'O-8 @ j-129', 'Pr-2 @ b-129', 'Ta-2 @ c-129']",-3.1154
wbm-1-42623,Na1Zr2Bi1O6,5.4417,0.1038,47.3454,1.8923,60.3605,9.549,3.41,52.7871,180.0041,7.5733,"['Bi-1 @ a-146', 'Na-1 @ a-146', 'O-3 @ b-146', 'O-3 @ b-146', 'Zr-1 @ a-146', 'Zr-1 @ a-146']",-2.9804
mp-1222852,La2Nd2Zr4O14,5.5217,0.1245,45.8956,2.2959,59.0879,10.8147,3.5028,51.4173,180.1047,7.6706,"['La-2 @ a-74', 'Nd-2 @ c-74', 'O-2 @ e-74', 'O-2 @ e-74', 'O-2 @ e-74', 'O-8 @ j-74', 'Zr-2 @ b-74', 'Zr-2 @ d-74']",-3.8851
mp-3998,La2Ta2O8,5.3617,0.131,47.4052,2.4753,50.2853,3.4403,3.4177,52.767,180.3417,2.4817,"['La-2 @ a-36', 'O-2 @ a-36', 'O-2 @ a-36', 'O-2 @ a-36', 'O-2 @ a-36', 'Ta-2 @ a-36']",-3.7153
mp-1221954,Mg1Ti2Zn1O6,5.4266,0.1815,51.2828,7.147,40.6348,3.7111,3.1877,56.7094,180.7725,16.0745,"['Mg-1 @ a-146', 'O-3 @ b-146', 'O-3 @ b-146', 'Ti-1 @ a-146', 'Ti-1 @ a-146', 'Zn-1 @ a-146']",-3.0921
mp-1228581,Ba4Na2W2O11,4.3778,0.0852,45.1647,8.3088,54.9646,9.2466,3.6534,49.5426,180.9988,5.4221,"['Ba-4 @ f-38', 'Na-1 @ a-38', 'Na-1 @ b-38', 'O-1 @ a-38', 'O-1 @ a-38', 'O-1 @ b-38', 'O-2 @ c-38', 'O-2 @ c-38', 'O-2 @ d-38', 'O-2 @ e-38', 'W-1 @ a-38', 'W-1 @ b-38']",-2.7157
wbm-1-16360,Tl2Si1F6,2.7212,0.0849,31.3334,2.7104,27.0693,2.6455,5.32,34.0546,181.1705,6.9853,"['F-6 @ i-164', 'Si-1 @ a-164', 'Tl-2 @ d-164']",-2.946
wbm-4-28412,Rb2Nb1O1F5,2.6325,0.0704,40.5365,2.9692,28.4824,6.0363,4.2,43.169,181.3097,14.6866,"['F-1 @ a-107', 'F-4 @ c-107', 'Nb-1 @ a-107', 'O-1 @ a-107', 'Rb-2 @ b-107']",-3.2632
mp-1217858,Ta4Ti4Tl4O20,5.2232,0.1158,64.7549,5.5437,37.55,4.0121,2.5943,69.9781,181.5443,32.4282,"['O-4 @ c-62', 'O-4 @ c-62', 'O-4 @ c-62', 'O-4 @ c-62', 'O-4 @ c-62', 'Ta-4 @ c-62', 'Ti-4 @ c-62', 'Tl-4 @ c-62']",-3.0038
mp-3491,Nb4Sb4O16,6.263,0.1028,67.8089,5.6741,73.1,4.3822,2.4528,74.0719,181.6835,0.9719,"['Nb-4 @ a-33', 'O-4 @ a-33', 'O-4 @ a-33', 'O-4 @ a-33', 'O-4 @ a-33', 'Sb-4 @ a-33']",-2.5333
mp-545665,W3O9,6.6324,0.2277,145.9167,2800.73,242.4876,1199.0258,1.1925,152.5491,181.9148,89.9385,"['O-3 @ f-191', 'O-6 @ m-191', 'W-3 @ g-191']",-2.1697
mp-1215294,Zr1Ti1Pb2O6,6.2822,0.1253,59.8604,5.7873,86.5079,42.7877,2.753,66.1426,182.0905,20.3654,"['O-1 @ a-1', 'O-1 @ a-1', 'O-1 @ a-1', 'O-1 @ a-1', 'O-1 @ a-1', 'O-1 @ a-1', 'Pb-1 @ a-1', 'Pb-1 @ a-1', 'Ti-1 @ a-1', 'Zr-1 @ a-1']",-2.7841
mp-1147624,Bi2C2N2O2,5.9997,0.3302,70.3188,9.5015,19.4857,0.7591,2.3915,76.3185,182.5157,56.8328,"['Bi-2 @ c-129', 'C-2 @ c-129', 'N-2 @ c-129', 'O-2 @ a-129']",-0.392
mp-756052,Ca6Zr4O14,4.3354,0.0847,50.6194,3.8448,35.6167,4.0549,3.3217,54.9548,182.5433,19.3381,"['Ca-2 @ c-63', 'Ca-4 @ g-63', 'O-2 @ c-63', 'O-4 @ e-63', 'O-4 @ e-63', 'O-4 @ g-63', 'Zr-4 @ g-63']",-3.5717
mp-22971,Sb4S4Br4,6.7324,0.1769,93.8007,5.4484,115.5405,9.6429,1.8194,100.5331,182.9099,15.0074,"['Br-4 @ c-62', 'S-4 @ c-62', 'Sb-4 @ c-62']",-0.664
mp-31415,La6Ta2O14,4.75,0.0938,48.1636,3.1251,32.1958,2.1197,3.4591,52.9136,183.0335,20.7178,"['La-2 @ a-63', 'La-4 @ g-63', 'O-2 @ c-63', 'O-4 @ g-63', 'O-8 @ h-63', 'Ta-2 @ b-63']",-3.8361
mp-755018,Rb1Ta1O3,5.4503,0.1541,66.009,6.23,42.8297,8.3759,2.5625,71.4593,183.1144,28.6296,"['O-3 @ b-160', 'Rb-1 @ a-160', 'Ta-1 @ a-160']",-2.9908
mp-677094,Mg1Ti3Nb2Pb6O18,6.3323,0.1494,85.004,8.2402,52.4178,5.9921,2.0091,91.3363,183.5037,38.9185,"['Mg-1 @ a-164', 'Nb-2 @ d-164', 'O-6 @ i-164', 'O-6 @ i-164', 'O-6 @ i-164', 'Pb-2 @ c-164', 'Pb-2 @ d-164', 'Pb-2 @ d-164', 'Ti-1 @ b-164', 'Ti-2 @ d-164']",-2.5696
mp-867708,Li1La1Nb2O7,4.9286,0.0972,126.1956,254.6565,164.4122,198.269,1.4009,131.1241,183.6918,33.288,"['La-1 @ a-119', 'Li-1 @ c-119', 'Nb-2 @ e-119', 'O-1 @ b-119', 'O-2 @ e-119', 'O-2 @ f-119', 'O-2 @ f-119']",-3.1917
mp-1221270,Na2Th1Ti3O9,5.3105,0.11,91.9192,11.1646,65.7481,28.9324,1.8921,97.2297,183.9682,31.4815,"['Na-2 @ d-164', 'O-3 @ e-164', 'O-6 @ i-164', 'Th-1 @ a-164', 'Ti-1 @ b-164', 'Ti-2 @ d-164']",-3.3323
wbm-2-30164,Na2Sn1Pb1S4,6.2505,0.119,70.8556,13.6566,60.0376,70.5061,2.39,77.1061,184.2837,17.0685,"['Na-2 @ d-121', 'Pb-1 @ a-121', 'S-4 @ i-121', 'Sn-1 @ b-121']",-1.039
mp-567716,Al4Tl4Cl16,3.1229,0.102,35.4853,1.5818,27.7674,2.027,4.7735,38.6082,184.2963,10.8408,"['Al-4 @ c-62', 'Cl-4 @ c-62', 'Cl-4 @ c-62', 'Cl-8 @ d-62', 'Tl-4 @ c-62']",-1.8251
mp-1218534,Sr5Zr1Ti4O15,5.2132,0.1238,91.1888,14.6684,71.8436,6.0268,1.9147,96.4019,184.5808,24.5584,"['O-3 @ d-166', 'O-6 @ h-166', 'O-6 @ h-166', 'Sr-1 @ b-166', 'Sr-2 @ c-166', 'Sr-2 @ c-166', 'Ti-2 @ c-166', 'Ti-2 @ c-166', 'Zr-1 @ a-166']",-3.5666
mp-555100,Nb4Bi4O16,5.9865,0.1413,67.3109,5.2323,59.2887,13.5296,2.5203,73.2973,184.7313,14.0086,"['Bi-2 @ i-2', 'Bi-2 @ i-2', 'Nb-2 @ i-2', 'Nb-2 @ i-2', 'O-2 @ i-2', 'O-2 @ i-2', 'O-2 @ i-2', 'O-2 @ i-2', 'O-2 @ i-2', 'O-2 @ i-2', 'O-2 @ i-2', 'O-2 @ i-2']",-2.5282
mp-9406,Li2La2Ti3O10,5.2158,0.1306,84.3292,29.9665,89.2349,15.9995,2.0733,89.5449,185.6535,0.3101,"['La-2 @ e-139', 'Li-2 @ d-139', 'O-2 @ c-139', 'O-2 @ e-139', 'O-2 @ e-139', 'O-4 @ g-139', 'Ti-1 @ a-139', 'Ti-2 @ e-139']",-3.4895
wbm-1-41412,Ti1Ge1O4,5.0454,0.1007,72.6884,9.7567,85.1133,11.5765,2.39,77.7338,185.7839,7.3794,"['Ge-1 @ a-119', 'O-2 @ e-119', 'O-2 @ f-119', 'Ti-1 @ c-119']",-2.7594
mp-546202,Li4C1O4,3.01,0.0791,41.3602,4.5891,49.7415,8.3193,4.1878,44.3702,185.8134,5.3713,"['C-1 @ a-215', 'Li-4 @ e-215', 'O-4 @ e-215']",-1.8706
mp-19241,Ba2Ni2O6,5.9789,0.3005,114.2736,161.6089,188.495,121.6786,1.5467,120.2525,185.9946,68.2425,"['Ba-2 @ b-186', 'Ni-2 @ a-186', 'O-6 @ c-186']",-1.7537
mp-1224442,Hf1Ti1Pb2O6,5.8038,0.1267,71.2141,9.1492,34.9121,6.1788,2.4153,77.0178,186.0212,42.1058,"['Hf-1 @ a-107', 'O-1 @ a-107', 'O-1 @ a-107', 'O-4 @ c-107', 'Pb-2 @ b-107', 'Ti-1 @ a-107']",-2.8483
mp-23089,Sr2Ta4Bi4O18,5.5828,0.1127,65.7258,1.7066,72.1997,5.4206,2.6137,71.3086,186.3794,0.8911,"['Bi-4 @ b-36', 'O-2 @ a-36', 'O-4 @ b-36', 'O-4 @ b-36', 'O-4 @ b-36', 'O-4 @ b-36', 'Sr-2 @ a-36', 'Ta-4 @ b-36']",-2.8492
mp-2136,Sb8O12,4.992,0.2067,78.7664,5.0484,68.273,8.5057,2.2308,83.7583,186.8481,15.4854,"['O-4 @ c-56', 'O-8 @ e-56', 'Sb-8 @ e-56']",-1.7609
mp-23427,Ti6Bi8O24,6.7047,0.204,70.0401,4.5172,66.7374,3.0014,2.4396,76.7448,187.2266,10.0074,"['Bi-4 @ b-41', 'Bi-4 @ b-41', 'O-4 @ b-41', 'O-4 @ b-41', 'O-4 @ b-41', 'O-4 @ b-41', 'O-4 @ b-41', 'O-4 @ b-41', 'Ti-2 @ a-41', 'Ti-4 @ b-41']",-2.5542
mp-1217380,Th1V2Pb1O8,4.7561,0.148,71.6707,3.7997,35.6338,2.6514,2.4509,76.4268,187.3145,40.7931,"['O-4 @ i-119', 'O-4 @ i-119', 'Pb-1 @ a-119', 'Th-1 @ c-119', 'V-1 @ b-119', 'V-1 @ d-119']",-2.7943
mp-754323,Tm2Bi2O6,5.5654,0.118,52.9269,3.9248,42.5883,4.6605,3.2028,58.4922,187.3389,15.9039,"['Bi-2 @ a-161', 'O-6 @ b-161', 'Tm-2 @ a-161']",-2.8464
mp-555256,Li8C2O8,2.8555,0.0872,28.0,10.92,25.0054,19.8183,6.0729,30.8555,187.3826,5.8501,"['C-2 @ a-31', 'Li-2 @ a-31', 'Li-2 @ a-31', 'Li-4 @ b-31', 'O-2 @ a-31', 'O-2 @ a-31', 'O-4 @ b-31']",-2.0368
mp-6325,Ba3Mg1Ta2O9,4.562,0.0821,52.6916,3.9006,59.4331,17.5983,3.2747,57.2537,187.4885,2.1795,"['Ba-1 @ a-164', 'Ba-2 @ d-164', 'Mg-1 @ b-164', 'O-3 @ e-164', 'O-6 @ i-164', 'Ta-2 @ d-164']",-3.4255
mp-1079574,Te4Pb4,20.4714,0.7217,111.0356,22.8475,47.2593,2.5815,1.4257,131.5069,187.4894,84.2477,"['Pb-4 @ c-62', 'Te-4 @ c-62']",-0.3503
mp-1216937,Ti4Nb4H4O20,5.574,0.1132,60.8836,8.5706,28.2055,1.8063,2.825,66.4577,187.743,38.2522,"['H-4 @ c-62', 'Nb-4 @ c-62', 'O-4 @ c-62', 'O-4 @ c-62', 'O-4 @ c-62', 'O-4 @ c-62', 'O-4 @ c-62', 'Ti-4 @ c-62']",-2.8942
wbm-1-20425,Ba1Ta2H2O7,4.432,0.0932,81.5698,11.7634,79.1691,13.4123,2.19,86.0018,188.344,6.8327,"['Ba-1 @ a-139', 'H-2 @ e-139', 'O-1 @ b-139', 'O-2 @ e-139', 'O-4 @ g-139', 'Ta-2 @ e-139']",-2.8451
mp-772972,Li8Ti8O20,5.0337,0.1118,45.491,4.8757,43.4,9.9293,3.7303,50.5247,188.4723,7.1246,"['Li-4 @ e-14', 'Li-4 @ e-14', 'O-4 @ e-14', 'O-4 @ e-14', 'O-4 @ e-14', 'O-4 @ e-14', 'O-4 @ e-14', 'Ti-4 @ e-14', 'Ti-4 @ e-14']",-3.1164
mp-19443,W2O6,6.8735,0.2686,156.9353,2703.2087,250.0177,973.2294,1.1508,163.8087,188.5111,86.209,"['O-2 @ c-129', 'O-4 @ d-129', 'W-2 @ c-129']",-2.1747
mp-754384,Sc2Tl2O4,9.554,0.656,165.5941,19.5163,150.7276,9.9436,1.0785,175.1481,188.8972,24.4204,"['O-4 @ f-194', 'Sc-2 @ a-194', 'Tl-2 @ c-194']",-2.6942
mp-39681,Na1Ti2Bi1O6,6.7373,0.1538,61.9451,3.9014,60.8722,11.7378,2.751,68.6824,188.9452,7.8101,"['Bi-1 @ a-146', 'Na-1 @ a-146', 'O-3 @ b-146', 'O-3 @ b-146', 'Ti-1 @ a-146', 'Ti-1 @ a-146']",-2.842
mp-1179454,Si4O8,2.633,0.1087,32.9452,6.9034,6.813,3.5898,5.3363,35.5782,189.8561,28.7652,"['O-4 @ f-139', 'O-4 @ i-139', 'Si-4 @ h-139']",-3.2669
mp-619071,Pb8Cl16,3.9514,0.1053,58.2901,8.0991,35.0897,2.9827,3.0505,62.2416,189.868,27.1519,"['Cl-4 @ e-14', 'Cl-4 @ e-14', 'Cl-4 @ e-14', 'Cl-4 @ e-14', 'Pb-4 @ e-14', 'Pb-4 @ e-14']",-1.525
wbm-1-40951,Na3Ta1O4,3.7802,0.0747,49.4259,3.4885,16.2604,1.7357,3.57,53.2061,189.9458,36.9457,"['Na-1 @ a-8', 'Na-2 @ b-8', 'O-1 @ a-8', 'O-1 @ a-8', 'O-2 @ b-8', 'Ta-1 @ a-8']",-2.5746
mp-1220903,Na1Ti2Bi1O6,5.4244,0.1372,75.0687,1.7589,26.8068,4.5713,2.3619,80.4932,190.1168,53.6863,"['Bi-1 @ a-35', 'Na-1 @ b-35', 'O-2 @ c-35', 'O-2 @ d-35', 'O-2 @ e-35', 'Ti-2 @ c-35']",-2.839
mp-27373,Sn4Cl4F4,3.699,0.1119,47.7778,2.7178,53.4157,3.4155,3.6986,51.4767,190.3918,1.9389,"['Cl-4 @ c-62', 'F-4 @ c-62', 'Sn-4 @ c-62']",-2.0082
mp-1120796,Li1Ti2Bi1O6,6.6586,0.1654,63.6356,6.4527,57.9074,10.4516,2.7097,70.2943,190.4764,12.3869,"['Bi-1 @ a-146', 'Li-1 @ a-146', 'O-3 @ b-146', 'O-3 @ b-146', 'Ti-1 @ a-146', 'Ti-1 @ a-146']",-2.8534
mp-1190015,Na4Nb4O12,6.1875,0.1459,79.1948,15.041,107.4722,14.1859,2.2327,85.3823,190.6331,22.0899,"['Na-2 @ a-31', 'Na-2 @ a-31', 'Nb-4 @ b-31', 'O-2 @ a-31', 'O-2 @ a-31', 'O-4 @ b-31', 'O-4 @ b-31']",-2.8381
mp-1228141,Ba3Ca1Ta2O9,4.5609,0.0814,54.4788,4.244,57.9181,9.4109,3.2308,59.0397,190.7454,1.1216,"['Ba-1 @ a-164', 'Ba-2 @ d-164', 'Ca-1 @ b-164', 'O-3 @ e-164', 'O-6 @ i-164', 'Ta-2 @ d-164']",-3.4634
mp-1221096,Na1Ca2Ta3O10,4.4837,0.0897,82.8763,31.6165,117.5749,32.6163,2.1908,87.3599,191.3882,30.215,"['Ca-2 @ e-119', 'Na-1 @ c-119', 'O-2 @ e-119', 'O-2 @ e-119', 'O-2 @ f-119', 'O-2 @ f-119', 'O-2 @ f-119', 'Ta-1 @ a-119', 'Ta-2 @ e-119']",-3.3181
wbm-2-23857,Li2Yb1Nb2O7,5.0871,0.1068,70.639,17.0524,73.4021,14.2052,2.53,75.7262,191.5872,2.324,"['Li-2 @ c-44', 'Nb-2 @ c-44', 'O-1 @ a-44', 'O-2 @ c-44', 'O-2 @ c-44', 'O-2 @ c-44', 'Yb-1 @ b-44']",-3.0604
mp-990430,Sr1Ta2H2O7,4.3766,0.0934,81.2215,13.8943,89.3131,14.7151,2.2433,85.5981,192.0222,3.715,"['H-2 @ e-139', 'O-1 @ a-139', 'O-2 @ e-139', 'O-4 @ g-139', 'Sr-1 @ b-139', 'Ta-2 @ e-139']",-2.8862
wbm-1-16459,Zr1Tl2F6,2.9821,0.1,34.3883,2.1125,34.8785,4.2004,5.15,37.3704,192.4574,2.4919,"['F-6 @ i-164', 'Tl-2 @ d-164', 'Zr-1 @ a-164']",-3.1989
mp-7980,Ba3Sr1Ta2O9,4.5653,0.081,52.3755,3.643,56.5937,8.9632,3.3835,56.9408,192.6591,0.3471,"['Ba-1 @ a-164', 'Ba-2 @ d-164', 'O-3 @ e-164', 'O-6 @ i-164', 'Sr-1 @ b-164', 'Ta-2 @ d-164']",-3.4002
mp-4571,Ca4Zr4O12,4.817,0.0958,45.6128,2.9607,46.9918,3.0255,3.826,50.4298,192.9443,3.438,"['Ca-4 @ c-62', 'O-4 @ c-62', 'O-8 @ d-62', 'Zr-4 @ a-62']",-3.6793
mp-1190108,Sr4Ta2In2O12,4.6571,0.0992,43.7272,4.6382,38.649,4.2212,3.9889,48.3843,193.0001,9.7353,"['In-2 @ a-14', 'O-4 @ e-14', 'O-4 @ e-14', 'O-4 @ e-14', 'Sr-4 @ e-14', 'Ta-2 @ d-14']",-3.1109
mp-674849,Tl2Bi2F8,3.3798,0.1164,47.303,7.1948,30.0125,2.8442,3.8236,50.6828,193.7909,20.6704,"['Bi-2 @ e-11', 'F-2 @ e-11', 'F-2 @ e-11', 'F-2 @ e-11', 'F-2 @ e-11', 'Tl-2 @ e-11']",-2.5461
mp-1227686,Ca3Ta4O12F2,4.6956,0.1325,49.7827,2.156,46.3618,3.5591,3.5696,54.4783,194.4657,8.1165,"['Ca-3 @ d-166', 'F-2 @ c-166', 'O-6 @ h-166', 'O-6 @ h-166', 'Ta-1 @ b-166', 'Ta-3 @ e-166']",-3.5904