material_id,formula,diel_elec_wren,diel_elec_ale,diel_ionic_wren,diel_ionic_ale,diel_total_wren,diel_total_ale,bandgap_pbe,diel_total_wren_indi,fom_wren,ae_indi_direct,wyckoff,e_form
wbm-2-16591,Na2Ca1Zr1F8,2.2984,0.0727,30.8667,3.4016,9.2422,0.4743,5.87,33.1651,194.6791,23.9229,"['Ca-1 @ a-5', 'F-2 @ c-5', 'F-2 @ c-5', 'F-2 @ c-5', 'F-2 @ c-5', 'Na-1 @ a-5', 'Na-1 @ b-5', 'Zr-1 @ b-5']",-3.7793
mp-1205823,Ba2Sc1Ta1O6,5.119,0.1446,59.4591,6.4993,58.4713,9.2471,3.0173,64.5781,194.8516,6.1068,"['Ba-2 @ c-225', 'O-6 @ e-225', 'Sc-1 @ a-225', 'Ta-1 @ b-225']",-3.6033
wbm-1-7638,Ba2C2O6,2.8867,0.0878,40.2344,7.102,8.8804,0.4438,4.52,43.1211,194.9075,34.2407,"['Ba-2 @ a-59', 'C-2 @ b-59', 'O-2 @ b-59', 'O-4 @ e-59']",-2.6123
wbm-1-25925,Li1La1Ta2O7,4.5944,0.091,82.3188,22.6861,137.4943,134.9397,2.25,86.9132,195.5546,50.5811,"['La-1 @ a-119', 'Li-1 @ c-119', 'O-1 @ b-119', 'O-2 @ e-119', 'O-2 @ f-119', 'O-2 @ f-119', 'Ta-2 @ e-119']",-3.3886
mp-33753,Ta4H4O12,5.7183,0.1547,65.6109,7.2671,22.9491,2.6181,2.7471,71.3292,195.9485,48.3801,"['H-4 @ e-141', 'O-4 @ e-141', 'O-8 @ g-141', 'Ta-4 @ c-141']",-2.6916
mp-1216863,Ti2Nb2Bi6O18,6.4092,0.1834,73.7704,14.0708,45.5722,6.6552,2.4484,80.1796,196.3118,34.6074,"['Bi-2 @ a-4', 'Bi-2 @ a-4', 'Bi-2 @ a-4', 'Nb-2 @ a-4', 'O-2 @ a-4', 'O-2 @ a-4', 'O-2 @ a-4', 'O-2 @ a-4', 'O-2 @ a-4', 'O-2 @ a-4', 'O-2 @ a-4', 'O-2 @ a-4', 'O-2 @ a-4', 'Ti-2 @ a-4']",-2.4418
wbm-2-37146,K1Rb2Ti1O1F5,2.4236,0.0663,46.6687,5.0653,53.7088,27.3396,4.01,49.0923,196.8599,4.6166,"['F-1 @ a-107', 'F-4 @ c-107', 'K-1 @ a-107', 'O-1 @ a-107', 'Rb-2 @ b-107', 'Ti-1 @ a-107']",-3.3263
mp-640553,Ba2Nb4O12,5.8889,0.1348,101.3165,8.9106,71.2694,4.8487,1.8366,107.2054,196.8934,35.9359,"['Ba-2 @ e-51', 'Nb-4 @ j-51', 'O-2 @ b-51', 'O-2 @ f-51', 'O-4 @ i-51', 'O-4 @ j-51']",-3.189
mp-1228180,Ba3La1Ta3O12,5.2239,0.0982,57.6029,4.957,40.8461,1.8083,3.1427,62.8268,197.4459,21.9807,"['Ba-1 @ a-160', 'Ba-1 @ a-160', 'Ba-1 @ a-160', 'La-1 @ a-160', 'O-3 @ b-160', 'O-3 @ b-160', 'O-3 @ b-160', 'O-3 @ b-160', 'Ta-1 @ a-160', 'Ta-1 @ a-160', 'Ta-1 @ a-160']",-3.4772
mp-1217456,Ti4Fe1Bi1Pb4O15,6.1595,0.1424,89.4544,4.5227,37.9221,5.9868,2.0657,95.6138,197.5095,57.6918,"['Bi-1 @ a-35', 'Fe-1 @ b-35', 'O-1 @ b-35', 'O-2 @ c-35', 'O-2 @ d-35', 'O-2 @ d-35', 'O-4 @ f-35', 'O-4 @ f-35', 'Pb-2 @ d-35', 'Pb-2 @ d-35', 'Ti-2 @ d-35', 'Ti-2 @ d-35']",-2.5337
mp-1218499,Sr3La1Ta3O12,5.0551,0.1012,56.4003,4.3161,37.9492,2.2043,3.2166,61.4554,197.6773,23.5062,"['La-1 @ a-160', 'O-3 @ b-160', 'O-3 @ b-160', 'O-3 @ b-160', 'O-3 @ b-160', 'Sr-1 @ a-160', 'Sr-1 @ a-160', 'Sr-1 @ a-160', 'Ta-1 @ a-160', 'Ta-1 @ a-160', 'Ta-1 @ a-160']",-3.5147
mp-23237,Bi4F12,3.4601,0.1021,38.7314,2.6619,41.4543,3.0405,4.6953,42.1914,198.1015,0.7371,"['Bi-4 @ c-62', 'F-4 @ c-62', 'F-8 @ d-62']",-2.8004
mp-1227907,Ca4Ti10Bi8O36,6.0773,0.2024,81.2776,2.6634,55.81,4.0472,2.2698,87.3549,198.2781,31.5448,"['Bi-4 @ b-41', 'Bi-4 @ b-41', 'Ca-4 @ b-41', 'O-4 @ b-41', 'O-4 @ b-41', 'O-4 @ b-41', 'O-4 @ b-41', 'O-4 @ b-41', 'O-4 @ b-41', 'O-4 @ b-41', 'O-4 @ b-41', 'O-4 @ b-41', 'Ti-2 @ a-41', 'Ti-4 @ b-41', 'Ti-4 @ b-41']",-2.8662
mp-22908,Bi4Cl12,3.9462,0.1012,53.9455,2.7258,59.9021,3.6107,3.426,57.8916,198.3367,2.0105,"['Bi-4 @ c-62', 'Cl-4 @ c-62', 'Cl-8 @ d-62']",-1.3774
wbm-2-15748,Cs2K1Sm1F6,2.2808,0.0765,28.2803,3.1988,9.3447,0.5264,6.5,30.5611,198.6471,21.2164,"['Cs-2 @ i-2', 'F-2 @ i-2', 'F-2 @ i-2', 'F-2 @ i-2', 'K-1 @ a-2', 'Sm-1 @ e-2']",-3.5811
mp-638061,Al4In4Cl16,3.0501,0.093,44.3234,2.5241,47.2396,1.6602,4.2242,47.3736,200.1154,0.134,"['Al-4 @ c-62', 'Cl-4 @ c-62', 'Cl-4 @ c-62', 'Cl-8 @ d-62', 'In-4 @ c-62']",-1.738
mp-556697,Ca2Ta4Bi4O18,5.6769,0.1169,63.5658,1.6073,72.7722,5.5891,2.8931,69.2426,200.3259,3.5295,"['Bi-4 @ b-36', 'Ca-2 @ a-36', 'O-2 @ a-36', 'O-4 @ b-36', 'O-4 @ b-36', 'O-4 @ b-36', 'O-4 @ b-36', 'Ta-4 @ b-36']",-2.8596
wbm-1-10270,Tl2Sn2Cl6,3.8552,0.1099,69.1511,6.983,46.1055,2.4978,2.75,73.0063,200.7674,26.9008,"['Cl-2 @ e-11', 'Cl-4 @ f-11', 'Sn-2 @ e-11', 'Tl-2 @ e-11']",-1.3677
mp-1220731,Na1La1Nb2O7,5.0074,0.0939,129.554,116.5749,169.2564,46.5791,1.4924,134.5615,200.8195,34.6949,"['La-1 @ a-119', 'Na-1 @ c-119', 'Nb-2 @ e-119', 'O-1 @ b-119', 'O-2 @ e-119', 'O-2 @ f-119', 'O-2 @ f-119']",-3.1857
mp-1228337,Ba3La2Ti2Nb2O15,5.0689,0.1064,79.0858,6.1132,60.6265,10.5314,2.3876,84.1547,200.9277,23.5281,"['Ba-1 @ a-164', 'Ba-2 @ d-164', 'La-2 @ d-164', 'Nb-2 @ c-164', 'O-3 @ e-164', 'O-6 @ i-164', 'O-6 @ i-164', 'Ti-2 @ d-164']",-3.4699
mp-19341,Tl4W2O8,4.2414,0.0817,55.1326,6.3102,28.913,1.0744,3.385,59.374,200.9812,30.4611,"['O-2 @ d-164', 'O-6 @ i-164', 'Tl-1 @ a-164', 'Tl-1 @ b-164', 'Tl-2 @ d-164', 'W-2 @ d-164']",-1.6975
wbm-1-23890,Li2Ca1Nb2O7,5.0039,0.1009,77.4759,16.4068,66.1692,14.3874,2.44,82.4797,201.2506,16.3105,"['Ca-1 @ a-44', 'Li-2 @ c-44', 'Nb-2 @ c-44', 'O-1 @ b-44', 'O-2 @ c-44', 'O-2 @ c-44', 'O-2 @ c-44']",-2.9965
mp-3671,Na8Nb8O24,4.8127,0.1016,80.6964,8.0342,42.4096,5.0614,2.3565,85.5091,201.5023,43.0996,"['Na-4 @ c-57', 'Na-4 @ d-57', 'Nb-8 @ e-57', 'O-4 @ c-57', 'O-4 @ d-57', 'O-8 @ e-57', 'O-8 @ e-57']",-2.8403
mp-4602,Tb4Ti4O14,4.8513,0.1821,66.8395,3.6639,70.2804,6.5917,2.8231,71.6907,202.3901,1.4103,"['O-12 @ f-227', 'O-2 @ a-227', 'Tb-4 @ c-227', 'Ti-4 @ d-227']",-3.7769
mp-28473,C2Cl2F6,2.1678,0.0917,27.9993,1.9955,28.3747,3.9492,6.7176,30.1672,202.6509,1.7925,"['C-2 @ a-36', 'Cl-2 @ a-36', 'F-2 @ a-36', 'F-4 @ b-36']",-1.7998
mp-4155,Ca4Nb4O14,4.8839,0.1675,124.4903,12.0145,152.0878,22.2095,1.5671,129.3742,202.7422,22.7137,"['Ca-4 @ c-227', 'Nb-4 @ d-227', 'O-12 @ f-227', 'O-2 @ a-227']",-3.2658
mp-1223092,La3Nd1Zr4O14,5.1165,0.114,50.9148,2.1971,52.4705,2.9554,3.6191,56.0313,202.7829,3.5608,"['La-3 @ d-166', 'Nd-1 @ a-166', 'O-2 @ c-166', 'O-6 @ h-166', 'O-6 @ h-166', 'Zr-1 @ b-166', 'Zr-3 @ e-166']",-3.9021
mp-555867,Ba2Nb4Bi4O18,6.289,0.1461,81.9753,4.5206,84.8548,6.847,2.3082,88.2643,203.7316,3.4095,"['Ba-2 @ a-36', 'Bi-4 @ b-36', 'Nb-4 @ b-36', 'O-2 @ a-36', 'O-4 @ b-36', 'O-4 @ b-36', 'O-4 @ b-36', 'O-4 @ b-36']",-2.6557
mp-1103508,Sr3Mg1Ta2O9,4.4217,0.0839,57.6539,7.0831,98.7342,27.075,3.282,62.0756,203.732,36.6587,"['Mg-1 @ a-164', 'O-3 @ f-164', 'O-6 @ i-164', 'Sr-1 @ b-164', 'Sr-2 @ d-164', 'Ta-2 @ d-164']",-3.4434
mp-559482,Ti4Bi4O14,6.8633,0.2579,70.8882,8.944,101.6751,11.4053,2.6238,77.7514,204.0042,23.9237,"['Bi-4 @ c-227', 'O-12 @ f-227', 'O-2 @ a-227', 'Ti-4 @ d-227']",-2.6447
mp-1215728,Y1V2Bi1O8,4.7348,0.1622,64.6307,4.2744,35.1289,2.921,2.9464,69.3655,204.3786,34.2367,"['Bi-1 @ a-119', 'O-4 @ i-119', 'O-4 @ i-119', 'V-1 @ b-119', 'V-1 @ c-119', 'Y-1 @ d-119']",-2.6748
wbm-1-15032,Ba1Na1F3,2.298,0.0726,31.687,9.7412,31.0766,5.7042,6.03,33.9849,204.929,2.9083,"['Ba-1 @ a-221', 'F-3 @ c-221', 'Na-1 @ b-221']",-3.5493
mp-754363,Ba2Hf1O4,4.5045,0.0986,53.3278,5.5055,46.0962,5.0758,3.5468,57.8322,205.1193,11.7361,"['Ba-2 @ e-139', 'Hf-1 @ a-139', 'O-2 @ c-139', 'O-2 @ e-139']",-3.5451
mp-753905,Tm4Zr4O14,4.6795,0.1484,86.5991,4.8305,61.1928,4.6283,2.2484,91.2786,205.2309,30.0858,"['O-12 @ f-227', 'O-2 @ a-227', 'Tm-4 @ c-227', 'Zr-4 @ d-227']",-3.8693
mp-675342,Nd1Pb4F11,3.1389,0.1134,43.1202,3.4776,30.4198,4.4458,4.4465,46.2591,205.6911,15.8392,"['F-1 @ a-8', 'F-1 @ a-8', 'F-1 @ a-8', 'F-1 @ a-8', 'F-1 @ a-8', 'F-1 @ a-8', 'F-1 @ a-8', 'F-1 @ a-8', 'F-1 @ a-8', 'F-1 @ a-8', 'F-1 @ a-8', 'Nd-1 @ a-8', 'Pb-1 @ a-8', 'Pb-1 @ a-8', 'Pb-1 @ a-8', 'Pb-1 @ a-8']",-3.0977
mp-1226968,Ca1Zr1V2O8,4.3796,0.1671,76.9716,7.859,34.7022,4.7014,2.5294,81.3512,205.7698,46.649,"['Ca-1 @ a-119', 'O-4 @ i-119', 'O-4 @ i-119', 'V-1 @ b-119', 'V-1 @ c-119', 'Zr-1 @ d-119']",-2.9763
mp-558608,Nb6Pb3O18,6.0582,0.1142,76.9869,10.0311,33.5974,2.0048,2.4795,83.0451,205.9103,49.4476,"['Nb-6 @ c-160', 'O-3 @ b-160', 'O-3 @ b-160', 'O-3 @ b-160', 'O-3 @ b-160', 'O-6 @ c-160', 'Pb-1 @ a-160', 'Pb-1 @ a-160', 'Pb-1 @ a-160']",-2.7468
mp-19033,W4O12,6.5848,0.2227,125.5638,24.2536,126.7711,17.1292,1.5648,132.1487,206.7862,5.3775,"['O-4 @ e-14', 'O-4 @ e-14', 'O-4 @ e-14', 'W-4 @ e-14']",-2.1733
mp-634410,Na1N3,2.7848,0.2029,42.5681,3.2305,44.8168,7.6841,4.5731,45.3529,207.4035,0.5361,"['N-1 @ a-5', 'N-2 @ c-5', 'Na-1 @ b-5']",-0.1193
mp-761118,Ti7Sn3O20,7.0459,0.1558,128.979,13.8471,143.6351,16.993,1.5249,136.0249,207.4244,7.6102,"['O-2 @ g-65', 'O-2 @ j-65', 'O-4 @ n-65', 'O-4 @ n-65', 'O-4 @ o-65', 'O-4 @ o-65', 'Sn-1 @ a-65', 'Sn-2 @ l-65', 'Ti-1 @ c-65', 'Ti-2 @ k-65', 'Ti-2 @ k-65', 'Ti-2 @ l-65']",-3.0395
wbm-1-38009,Ta8Ag8O24,5.4106,0.1601,100.6849,6.4239,69.5502,8.0381,1.96,106.0954,207.947,36.5452,"['Ag-4 @ c-57', 'Ag-4 @ d-57', 'O-4 @ c-57', 'O-4 @ d-57', 'O-8 @ e-57', 'O-8 @ e-57', 'Ta-8 @ e-57']",-2.4168
mp-3870,Sr4Nb4O14,4.9851,0.1116,69.2148,7.8795,70.4024,9.3448,2.8075,74.1999,208.3162,3.7975,"['Nb-2 @ a-36', 'Nb-2 @ a-36', 'O-2 @ a-36', 'O-2 @ a-36', 'O-2 @ a-36', 'O-2 @ a-36', 'O-2 @ a-36', 'O-2 @ a-36', 'O-2 @ a-36', 'Sr-2 @ a-36', 'Sr-2 @ a-36']",-3.3106
mp-1218510,Sr3Zr2Nb2O12,5.5129,0.1282,94.592,6.6127,71.6208,4.3758,2.0865,100.1049,208.8688,28.4841,"['Nb-2 @ c-166', 'O-3 @ d-166', 'O-3 @ e-166', 'O-6 @ h-166', 'Sr-1 @ a-166', 'Sr-2 @ c-166', 'Zr-2 @ c-166']",-3.4226
mp-676400,Tl1N1O2,3.8134,0.1239,120.3449,58.6579,42.0064,111.8392,1.6843,124.1584,209.1199,82.152,"['N-1 @ a-1', 'O-1 @ a-1', 'O-1 @ a-1', 'Tl-1 @ a-1']",-0.8641
mp-1190245,Gd4Hf4O14,4.5245,0.1321,57.9606,4.179,54.8523,4.5289,3.3504,62.485,209.3499,7.6327,"['Gd-4 @ c-227', 'Hf-4 @ d-227', 'O-12 @ f-227', 'O-2 @ a-227']",-4.0093
mp-1080575,Sr2Zr2O6,4.7379,0.0958,55.6792,4.3073,44.4922,2.6865,3.4687,60.4171,209.5689,15.925,"['O-2 @ e-74', 'O-4 @ f-74', 'Sr-2 @ e-74', 'Zr-2 @ c-74']",-3.6656
wbm-3-56811,Cs2Na1Th1O1F5,2.3975,0.0707,47.5603,9.5433,30.0602,4.6458,4.21,49.9577,210.3221,19.8975,"['Cs-2 @ b-107', 'F-1 @ a-107', 'F-4 @ c-107', 'Na-1 @ a-107', 'O-1 @ a-107', 'Th-1 @ a-107']",-3.4916
mp-1222747,La1Ta2Ag1O7,4.9177,0.1114,128.777,18.9302,135.3091,46.7005,1.5736,133.6947,210.382,1.6144,"['Ag-1 @ a-119', 'La-1 @ c-119', 'O-1 @ d-119', 'O-2 @ e-119', 'O-2 @ e-119', 'O-2 @ f-119', 'Ta-2 @ f-119']",-3.098
mp-38418,Tm4Ti4O14,4.6138,0.184,73.1073,4.2164,85.6704,7.219,2.7104,77.7211,210.6553,7.9493,"['O-12 @ f-227', 'O-2 @ a-227', 'Ti-4 @ d-227', 'Tm-4 @ c-227']",-3.7962
wbm-1-37025,Ge4O8,3.4203,0.1114,60.7084,66.4885,41.2533,13.7118,3.29,64.1287,210.9833,22.8754,"['Ge-4 @ c-20', 'O-2 @ a-20', 'O-2 @ b-20', 'O-4 @ c-20']",-2.0623
wbm-1-39242,Na8Ta8O24,4.6727,0.0928,75.3323,11.3776,28.3548,2.498,2.64,80.0049,211.213,51.6501,"['Na-4 @ c-57', 'Na-4 @ d-57', 'O-4 @ c-57', 'O-4 @ d-57', 'O-8 @ e-57', 'O-8 @ e-57', 'Ta-8 @ e-57']",-3.0756
mp-1219784,Rb2Ti1W3O12,4.2697,0.1386,70.5542,9.6592,30.5974,4.2406,2.8232,74.8239,211.2428,44.2265,"['O-2 @ c-5', 'O-2 @ c-5', 'O-2 @ c-5', 'O-2 @ c-5', 'O-2 @ c-5', 'O-2 @ c-5', 'Rb-2 @ c-5', 'Ti-1 @ a-5', 'W-1 @ b-5', 'W-2 @ c-5']",-2.4884
mp-583454,Nb4Bi4Pb2O18,6.8072,0.1647,82.8836,8.3708,80.9762,3.9092,2.3591,89.6908,211.5896,8.7146,"['Bi-4 @ b-36', 'Nb-4 @ b-36', 'O-2 @ a-36', 'O-4 @ b-36', 'O-4 @ b-36', 'O-4 @ b-36', 'O-4 @ b-36', 'Pb-2 @ a-36']",-2.3801
wbm-1-15420,Yb1Sn1F4,3.1999,0.0978,57.5238,2.6597,44.0857,4.0328,3.5,60.7238,212.5331,16.6381,"['F-4 @ i-123', 'Sn-1 @ a-123', 'Yb-1 @ d-123']",-3.5232
mp-774242,Li2Ta2W2O12,4.6898,0.1067,61.8354,12.8343,60.9238,13.5856,3.1954,66.5253,212.5748,5.6015,"['Li-2 @ a-74', 'O-2 @ e-74', 'O-2 @ e-74', 'O-8 @ j-74', 'Ta-2 @ c-74', 'W-2 @ b-74']",-2.6261
mp-771771,Ta8Pb4O24,5.4367,0.1187,54.4339,3.4069,39.2155,3.0556,3.5547,59.8706,212.8221,20.6551,"['O-8 @ d-60', 'O-8 @ d-60', 'O-8 @ d-60', 'Pb-4 @ c-60', 'Ta-8 @ d-60']",-2.9798
mp-8335,Ba2Zr1O4,4.855,0.1031,65.46,14.2279,71.919,7.0577,3.028,70.3151,212.914,1.6039,"['Ba-2 @ e-139', 'O-2 @ c-139', 'O-2 @ e-139', 'Zr-1 @ a-139']",-3.4394
mp-1221000,Na2Ta2W2O12,4.6511,0.1107,60.4173,7.4213,60.0771,13.6421,3.2929,65.0684,214.2639,4.9913,"['Na-2 @ a-74', 'O-2 @ e-74', 'O-2 @ e-74', 'O-8 @ j-74', 'Ta-2 @ c-74', 'W-2 @ b-74']",-2.6755
mp-1078748,Sr2Ta1In1O6,4.4194,0.0869,49.755,5.5006,34.464,3.8772,3.956,54.1744,214.3138,19.7104,"['In-1 @ a-12', 'O-2 @ i-12', 'O-4 @ j-12', 'Sr-2 @ i-12', 'Ta-1 @ d-12']",-3.1061
mp-33948,Ho4Ti4O14,4.7313,0.1887,71.3425,4.0695,74.235,6.6626,2.82,76.0738,214.5282,1.8388,"['Ho-4 @ c-227', 'O-12 @ f-227', 'O-2 @ a-227', 'Ti-4 @ d-227']",-3.786
mp-20507,Pb4S4O12,3.8735,0.0842,55.0225,5.7412,30.1903,2.4036,3.6548,58.896,215.2531,28.7057,"['O-4 @ c-62', 'O-8 @ d-62', 'Pb-4 @ c-62', 'S-4 @ c-62']",-1.7263
wbm-5-15719,Cs2Nb1O1F5,2.6472,0.0722,48.736,5.0974,34.8943,9.0666,4.19,51.3832,215.2955,16.4889,"['Cs-2 @ b-107', 'F-1 @ a-107', 'F-4 @ c-107', 'Nb-1 @ a-107', 'O-1 @ a-107']",-3.2861
mp-34292,Tl9Sb1Te6,21.6103,0.6617,319.7299,47.9251,131.5201,316.7629,0.631,341.3402,215.3857,209.8201,"['Sb-1 @ a-79', 'Te-1 @ a-79', 'Te-1 @ a-79', 'Te-4 @ c-79', 'Tl-1 @ a-79', 'Tl-4 @ c-79', 'Tl-4 @ c-79']",-0.2863
mp-1228150,Ba3La1Nb3O12,5.5774,0.1067,75.283,8.177,47.2796,4.5722,2.667,80.8604,215.6546,33.5808,"['Ba-1 @ a-160', 'Ba-1 @ a-160', 'Ba-1 @ a-160', 'La-1 @ a-160', 'Nb-1 @ a-160', 'Nb-1 @ a-160', 'Nb-1 @ a-160', 'O-3 @ b-160', 'O-3 @ b-160', 'O-3 @ b-160', 'O-3 @ b-160']",-3.3088
mp-1196213,Li8Nb8O24,5.4642,0.1033,63.5043,11.9719,44.5641,7.9551,3.1289,68.9685,215.7954,24.4044,"['Li-4 @ e-14', 'Li-4 @ e-14', 'Nb-4 @ e-14', 'Nb-4 @ e-14', 'O-4 @ e-14', 'O-4 @ e-14', 'O-4 @ e-14', 'O-4 @ e-14', 'O-4 @ e-14', 'O-4 @ e-14']",-2.8954
mp-1223039,K2Ta2W2O12,4.7559,0.1014,61.468,6.9974,72.1539,21.0199,3.2588,66.2239,215.8104,5.93,"['K-2 @ b-46', 'O-2 @ b-46', 'O-2 @ b-46', 'O-4 @ c-46', 'O-4 @ c-46', 'Ta-2 @ a-46', 'W-2 @ b-46']",-2.7251
mp-23413,Nb4Bi4O16,6.0342,0.1032,66.8518,4.5853,56.9983,19.4484,2.965,72.886,216.1071,15.8877,"['Bi-4 @ c-52', 'Nb-4 @ d-52', 'O-8 @ e-52', 'O-8 @ e-52']",-2.5234
wbm-1-24023,Li2Sn1Pb1S4,7.4257,0.1569,92.1703,65.6918,81.8315,312.9551,2.17,99.596,216.1233,17.7645,"['Li-2 @ d-121', 'Pb-1 @ a-121', 'S-4 @ i-121', 'Sn-1 @ b-121']",-1.1252
mp-1208442,Ta8Cd4O24,5.2238,0.1137,48.6954,3.1163,39.1756,4.3898,4.0196,53.9192,216.7336,14.7436,"['Cd-4 @ c-60', 'O-8 @ d-60', 'O-8 @ d-60', 'O-8 @ d-60', 'Ta-8 @ d-60']",-2.9588
wbm-1-24203,Rb2Li3F5,2.2086,0.0784,34.5844,7.5682,8.9961,0.5152,5.9,36.793,217.0786,27.7969,"['F-1 @ a-38', 'F-1 @ a-38', 'F-1 @ a-38', 'F-1 @ b-38', 'F-1 @ b-38', 'Li-1 @ a-38', 'Li-1 @ a-38', 'Li-1 @ b-38', 'Rb-1 @ a-38', 'Rb-1 @ b-38']",-3.0018
mp-769571,Ba4Ta4O14,5.3847,0.1279,64.6637,9.7383,62.3916,17.1452,3.1122,70.0484,218.0048,7.6568,"['Ba-2 @ a-74', 'Ba-2 @ c-74', 'O-2 @ e-74', 'O-4 @ h-74', 'O-8 @ j-74', 'Ta-2 @ b-74', 'Ta-2 @ d-74']",-3.4142
mp-776108,Li8Nb8O24,5.0732,0.1028,74.5346,8.1069,34.2026,2.2382,2.7433,79.6078,218.3882,45.4052,"['Li-4 @ c-57', 'Li-4 @ d-57', 'Nb-8 @ e-57', 'O-4 @ c-57', 'O-4 @ d-57', 'O-8 @ e-57', 'O-8 @ e-57']",-2.884
mp-541368,Tl4V2O7,5.0056,0.1075,78.623,4.0894,75.5419,4.2508,2.6163,83.6286,218.7974,8.0867,"['O-1 @ a-164', 'O-6 @ i-164', 'Tl-2 @ d-164', 'Tl-2 @ d-164', 'V-2 @ c-164']",-1.831
wbm-1-14742,Pb4F8,4.1104,0.0887,52.808,9.7572,28.0377,3.3572,3.85,56.9184,219.1358,28.8807,"['F-2 @ a-129', 'F-2 @ c-129', 'F-4 @ f-129', 'Pb-2 @ c-129', 'Pb-2 @ c-129']",-2.6011
mp-1244597,Mg4Ta4Bi4O20,5.0826,0.1086,54.94,2.6091,29.9811,4.3168,3.6621,60.0226,219.8087,30.0415,"['Bi-4 @ e-14', 'Mg-4 @ e-14', 'O-4 @ e-14', 'O-4 @ e-14', 'O-4 @ e-14', 'O-4 @ e-14', 'O-4 @ e-14', 'Ta-4 @ e-14']",-2.7523
wbm-3-36395,Li2Mg1Ta2O7,4.5707,0.0981,68.771,6.2512,42.0449,9.2776,3.0,73.3417,220.025,31.2968,"['Li-2 @ c-44', 'Mg-1 @ a-44', 'O-1 @ b-44', 'O-2 @ c-44', 'O-2 @ c-44', 'O-2 @ c-44', 'Ta-2 @ c-44']",-3.0318
mp-863066,Ta12Pb8O38,5.7336,0.1152,120.4002,15.8753,58.0678,18.4325,1.7454,126.1338,220.154,68.066,"['O-2 @ e-74', 'O-2 @ e-74', 'O-2 @ e-74', 'O-4 @ h-74', 'O-4 @ h-74', 'O-8 @ j-74', 'O-8 @ j-74', 'O-8 @ j-74', 'Pb-2 @ a-74', 'Pb-2 @ c-74', 'Pb-4 @ h-74', 'Ta-2 @ b-74', 'Ta-2 @ d-74', 'Ta-4 @ g-74', 'Ta-4 @ h-74']",-2.9068
mp-1219631,Rb4Ta4Ti4O20,4.5315,0.0869,69.113,10.211,39.8001,5.8102,3.0011,73.6446,221.0147,33.8445,"['O-4 @ c-62', 'O-4 @ c-62', 'O-4 @ c-62', 'O-4 @ c-62', 'O-4 @ c-62', 'Rb-4 @ c-62', 'Ta-4 @ c-62', 'Ti-4 @ c-62']",-3.2451
mp-6000,La2Ti3Ag2O10,5.746,0.1549,106.5232,6.9898,65.3229,8.6925,1.97,112.2692,221.1703,46.9463,"['Ag-2 @ e-139', 'La-2 @ e-139', 'O-2 @ c-139', 'O-2 @ e-139', 'O-2 @ e-139', 'O-4 @ g-139', 'Ti-1 @ a-139', 'Ti-2 @ e-139']",-3.0737
mp-5373,Y4Ti4O14,4.7918,0.1839,73.7662,4.5693,68.4708,6.5084,2.817,78.5579,221.2976,10.0871,"['O-12 @ f-227', 'O-2 @ a-227', 'Ti-4 @ d-227', 'Y-4 @ c-227']",-3.7625
mp-42190,K2Na1Ti1O1F5,2.4311,0.0695,53.4338,6.9821,66.3072,40.8741,3.964,55.8649,221.4486,10.4423,"['F-1 @ a-107', 'F-4 @ c-107', 'K-2 @ b-107', 'Na-1 @ a-107', 'O-1 @ a-107', 'Ti-1 @ a-107']",-3.3423
mp-5532,Sr2Ti1O4,5.1251,0.0987,108.9012,15.6643,119.8494,19.0766,1.9442,114.0263,221.6898,5.8231,"['O-2 @ c-139', 'O-2 @ e-139', 'Sr-2 @ e-139', 'Ti-1 @ a-139']",-3.453
mp-989190,Sc2Br2O2,4.9028,0.092,61.1958,9.2027,68.9511,31.4928,3.3609,66.0986,222.1509,2.8525,"['Br-2 @ c-129', 'O-2 @ a-129', 'Sc-2 @ c-129']",-2.9509
mp-34322,Dy4Ti4O14,4.7842,0.1882,73.951,4.4712,78.4704,7.1829,2.8242,78.7352,222.364,0.2648,"['Dy-4 @ c-227', 'O-12 @ f-227', 'O-2 @ a-227', 'Ti-4 @ d-227']",-3.7822
mp-1205541,Na1Sc1Tl2F6,2.9429,0.0998,43.7981,3.0312,44.8653,2.501,4.7641,46.7411,222.6791,1.8758,"['F-6 @ e-225', 'Na-1 @ a-225', 'Sc-1 @ b-225', 'Tl-2 @ c-225']",-3.1718
mp-1228088,Ba4Sr1Hf5O15,4.5188,0.0988,58.2176,3.3172,43.703,3.6387,3.5543,62.7364,222.9839,19.0334,"['Ba-2 @ c-166', 'Ba-2 @ c-166', 'Hf-1 @ a-166', 'Hf-2 @ c-166', 'Hf-2 @ c-166', 'O-3 @ d-166', 'O-6 @ h-166', 'O-6 @ h-166', 'Sr-1 @ b-166']",-3.7931
mp-554669,Ba3Ta2Cd1O9,4.8519,0.0832,59.1488,6.6465,72.0198,10.9426,3.4868,64.0007,223.1577,8.0191,"['Ba-1 @ a-164', 'Ba-2 @ d-164', 'Cd-1 @ b-164', 'O-3 @ e-164', 'O-6 @ i-164', 'Ta-2 @ d-164']",-3.1798
mp-1192238,Sm6Ta2O14,4.7805,0.1352,59.8727,6.1671,45.5261,3.6061,3.4519,64.6531,223.1761,19.127,"['O-2 @ c-63', 'O-2 @ c-63', 'O-2 @ c-63', 'O-8 @ h-63', 'Sm-2 @ a-63', 'Sm-4 @ g-63', 'Ta-2 @ b-63']",-3.8001
mp-647999,Nb4Cd4O14,6.5767,0.2081,117.0797,12.5596,149.3339,18.3959,1.8052,123.6563,223.2244,25.6776,"['Cd-4 @ c-227', 'Nb-4 @ d-227', 'O-12 @ f-227', 'O-2 @ b-227']",-2.2038
mp-754295,Li6Fe2O2F8,2.8967,0.0875,90.6956,4.5046,78.8829,22.7762,2.388,93.5923,223.4983,14.7094,"['F-2 @ a-8', 'F-2 @ a-8', 'F-2 @ a-8', 'F-2 @ a-8', 'Fe-2 @ a-8', 'Li-2 @ a-8', 'Li-2 @ a-8', 'Li-2 @ a-8', 'O-2 @ a-8']",-2.8304
mp-1540712,Ca2Ti3O8,5.1292,0.0926,75.3858,9.8235,69.5318,6.775,2.7811,80.515,223.9203,10.9832,"['Ca-2 @ i-12', 'O-2 @ i-12', 'O-2 @ i-12', 'O-4 @ j-12', 'Ti-1 @ a-12', 'Ti-2 @ h-12']",-3.5653
wbm-2-16379,Th1Tl2F6,2.896,0.0937,44.4966,4.7131,35.5576,4.0543,4.74,47.3926,224.6411,11.8351,"['F-6 @ i-164', 'Th-1 @ a-164', 'Tl-2 @ d-164']",-3.3799
wbm-1-44154,Rb2Na1Ti1O1F5,2.464,0.0705,55.05,4.227,50.173,25.8506,3.93,57.5139,226.0298,7.341,"['F-1 @ a-107', 'F-4 @ c-107', 'Na-1 @ a-107', 'O-1 @ a-107', 'Rb-2 @ b-107', 'Ti-1 @ a-107']",-3.3358
mp-545544,Ba2Ta1Bi1O6,5.6516,0.1042,78.4245,10.2557,80.5365,13.1807,2.69,84.0761,226.1648,3.5397,"['Ba-2 @ i-12', 'Bi-1 @ a-12', 'O-2 @ i-12', 'O-4 @ j-12', 'Ta-1 @ d-12']",-2.9607
mp-33319,Pr3N1F6,3.6664,0.1031,63.9052,6.6179,54.3436,11.0353,3.3524,67.5716,226.5271,13.2281,"['F-1 @ a-1', 'F-1 @ a-1', 'F-1 @ a-1', 'F-1 @ a-1', 'F-1 @ a-1', 'F-1 @ a-1', 'N-1 @ a-1', 'Pr-1 @ a-1', 'Pr-1 @ a-1', 'Pr-1 @ a-1']",-3.7842
wbm-1-42833,Sr2Ta1Bi1O6,4.8475,0.1012,86.5177,10.3308,55.4127,11.7062,2.48,91.3652,226.5857,35.9525,"['Bi-1 @ a-12', 'O-2 @ i-12', 'O-4 @ j-12', 'Sr-2 @ i-12', 'Ta-1 @ d-12']",-2.9729
wbm-3-23847,Ca1Gd2F8,2.4193,0.0698,49.0331,9.8855,11.0832,0.5303,4.41,51.4524,226.9051,40.3692,"['Ca-1 @ a-8', 'F-1 @ a-8', 'F-1 @ a-8', 'F-2 @ b-8', 'F-2 @ b-8', 'F-2 @ b-8', 'Gd-2 @ b-8']",-4.318