material_id,formula,diel_elec_wren,diel_elec_ale,diel_ionic_wren,diel_ionic_ale,diel_total_wren,diel_total_ale,bandgap_pbe,diel_total_wren_indi,fom_wren,ae_indi_direct,wyckoff,e_form
mp-1220741,Na1La1Ta2O7,4.5495,0.0939,91.3917,27.9854,152.413,108.6076,2.3705,95.9412,227.4286,56.4718,"['La-1 @ a-119', 'Na-1 @ c-119', 'O-1 @ b-119', 'O-2 @ e-119', 'O-2 @ f-119', 'O-2 @ f-119', 'Ta-2 @ e-119']",-3.3821
mp-23008,Pb2Br2F2,5.2623,0.0993,74.7209,9.4672,72.5817,3.7963,2.863,79.9833,228.9921,7.4016,"['Br-2 @ c-129', 'F-2 @ a-129', 'Pb-2 @ c-129']",-1.8243
wbm-2-16523,Rb3Zr1F7,2.1624,0.0632,36.7415,3.7347,14.809,1.4252,5.89,38.9039,229.1437,24.0949,"['F-1 @ a-8', 'F-1 @ a-8', 'F-1 @ a-8', 'F-2 @ b-8', 'F-2 @ b-8', 'Rb-1 @ a-8', 'Rb-2 @ b-8', 'Zr-1 @ a-8']",-3.5542
mp-995147,Pb2Br2Cl2,5.2394,0.1619,64.5184,8.0581,48.8925,3.6125,3.2852,69.7578,229.1683,20.8653,"['Br-2 @ c-129', 'Cl-2 @ a-129', 'Pb-2 @ c-129']",-1.1846
wbm-2-16267,Rb3Sc1F6,2.3183,0.0841,34.2967,3.6458,9.0952,0.4928,6.28,36.615,229.9422,27.5198,"['F-2 @ i-2', 'F-2 @ i-2', 'F-2 @ i-2', 'Rb-1 @ a-2', 'Rb-2 @ i-2', 'Sc-1 @ g-2']",-3.5679
wbm-1-40212,Ba8Zr8O24,5.0688,0.1092,70.63,10.1918,78.6816,6.2062,3.04,75.6988,230.1243,2.9828,"['Ba-8 @ a-221', 'O-24 @ c-221', 'Zr-8 @ b-221']",-3.648
wbm-3-51652,Ba2Zr2O6,5.0688,0.1092,70.63,10.1918,78.6815,6.2062,3.04,75.6988,230.1243,2.9828,"['Ba-2 @ a-221', 'O-6 @ c-221', 'Zr-2 @ b-221']",-3.6479
mp-1215414,Zr1Ti4Pb5O15,5.7874,0.1306,105.8014,3.342,49.5813,19.5951,2.0719,111.5887,231.2007,62.0074,"['O-1 @ a-35', 'O-2 @ c-35', 'O-2 @ d-35', 'O-2 @ d-35', 'O-4 @ f-35', 'O-4 @ f-35', 'Pb-1 @ b-35', 'Pb-2 @ d-35', 'Pb-2 @ d-35', 'Ti-2 @ d-35', 'Ti-2 @ d-35', 'Zr-1 @ a-35']",-2.7493
wbm-5-15715,K2Nb1O1F5,2.6506,0.0788,50.6436,6.7489,14.2554,1.1325,4.34,53.2942,231.297,39.0388,"['F-1 @ a-1', 'F-1 @ a-1', 'F-1 @ a-1', 'F-1 @ a-1', 'F-1 @ a-1', 'K-1 @ a-1', 'K-1 @ a-1', 'Nb-1 @ a-1', 'O-1 @ a-1']",-3.2654
mp-1239305,Ca4Ta4Bi4O20,5.0433,0.1063,55.5811,4.159,32.663,4.4678,3.8157,60.6244,231.3245,27.9614,"['Bi-4 @ e-14', 'Ca-4 @ e-14', 'O-4 @ e-14', 'O-4 @ e-14', 'O-4 @ e-14', 'O-4 @ e-14', 'O-4 @ e-14', 'Ta-4 @ e-14']",-2.8897
mp-1218076,Ta3Zn2Bi3O14,6.3596,0.182,80.8118,11.5121,42.3752,3.5316,2.6551,87.1714,231.4487,44.7962,"['Bi-3 @ d-166', 'O-2 @ c-166', 'O-6 @ h-166', 'O-6 @ h-166', 'Ta-3 @ e-166', 'Zn-1 @ a-166', 'Zn-1 @ b-166']",-2.4956
mp-1219587,Rb2Nb2W2O12,4.9265,0.1222,74.1336,12.9689,49.5159,8.2909,2.93,79.0602,231.6463,29.5443,"['Nb-2 @ a-74', 'O-2 @ e-74', 'O-2 @ e-74', 'O-8 @ j-74', 'Rb-2 @ e-74', 'W-2 @ c-74']",-2.6135
mp-997589,La8Al7In1O24,4.8024,0.1207,65.4486,6.2158,76.4623,39.2015,3.3008,70.2509,231.8843,6.2114,"['Al-1 @ a-221', 'Al-3 @ c-221', 'Al-3 @ d-221', 'In-1 @ b-221', 'La-8 @ g-221', 'O-12 @ h-221', 'O-6 @ e-221', 'O-6 @ f-221']",-3.5768
wbm-3-56840,Rb3Ti1O1F5,2.4432,0.066,55.139,5.6667,47.028,20.105,4.03,57.5822,232.0564,10.5543,"['F-1 @ a-107', 'F-4 @ c-107', 'O-1 @ a-107', 'Rb-1 @ a-107', 'Rb-2 @ b-107', 'Ti-1 @ a-107']",-3.2945
mp-1223394,K4Ta4Ti4O20,4.575,0.0859,71.8975,14.7426,44.4392,6.1388,3.0422,76.4725,232.6445,32.0332,"['K-4 @ c-62', 'O-4 @ c-62', 'O-4 @ c-62', 'O-4 @ c-62', 'O-4 @ c-62', 'O-4 @ c-62', 'Ta-4 @ c-62', 'Ti-4 @ c-62']",-3.2505
mp-27214,Cs1Sn1Br3,6.1186,0.3135,91.5242,5.9917,95.8573,11.2132,2.385,97.6428,232.8782,1.7855,"['Br-3 @ c-221', 'Cs-1 @ a-221', 'Sn-1 @ b-221']",-1.243
mp-1215944,Zr2Ti1Pb3O9,6.1325,0.1439,71.6872,1.7445,42.2963,14.3006,2.9968,77.8197,233.2102,35.5234,"['O-1 @ a-8', 'O-2 @ b-8', 'O-2 @ b-8', 'O-2 @ b-8', 'O-2 @ b-8', 'Pb-1 @ a-8', 'Pb-2 @ b-8', 'Ti-1 @ a-8', 'Zr-2 @ b-8']",-2.8108
mp-623854,Na2Nb6O16,5.7477,0.1188,87.0708,12.0921,81.0715,11.9361,2.5211,92.8185,234.0048,11.7471,"['Na-2 @ a-59', 'Nb-2 @ b-59', 'Nb-4 @ e-59', 'O-2 @ a-59', 'O-2 @ a-59', 'O-4 @ e-59', 'O-4 @ e-59', 'O-4 @ e-59']",-2.9704
mp-1173489,Nb2Zn1Pb3O9,7.0259,0.1478,89.3781,384.613,127.8332,258.1567,2.4369,96.404,234.9269,31.4292,"['Nb-1 @ a-1', 'Nb-1 @ a-1', 'O-1 @ a-1', 'O-1 @ a-1', 'O-1 @ a-1', 'O-1 @ a-1', 'O-1 @ a-1', 'O-1 @ a-1', 'O-1 @ a-1', 'O-1 @ a-1', 'O-1 @ a-1', 'Pb-1 @ a-1', 'Pb-1 @ a-1', 'Pb-1 @ a-1', 'Zn-1 @ a-1']",-2.2724
mp-559951,Sr2Ta4Bi4O18,6.0695,0.174,91.8585,3.0659,62.7242,4.4677,2.4005,97.928,235.0761,35.2038,"['Bi-4 @ b-41', 'O-2 @ a-41', 'O-4 @ b-41', 'O-4 @ b-41', 'O-4 @ b-41', 'O-4 @ b-41', 'Sr-2 @ a-41', 'Ta-4 @ b-41']",-2.8386
mp-1228174,Ba7Ti2Nb4O21,5.0532,0.1268,86.649,6.5354,67.7783,5.5873,2.5636,91.7022,235.0877,23.9239,"['Ba-1 @ a-166', 'Ba-2 @ c-166', 'Ba-2 @ c-166', 'Ba-2 @ c-166', 'Nb-2 @ c-166', 'Nb-2 @ c-166', 'O-3 @ e-166', 'O-6 @ h-166', 'O-6 @ h-166', 'O-6 @ h-166', 'Ti-2 @ c-166']",-3.3441
mp-764594,Li4Fe3O1F8,2.7538,0.0794,85.2803,5.8812,8.2566,0.6067,2.6745,88.034,235.447,79.7774,"['F-1 @ a-8', 'F-1 @ a-8', 'F-1 @ a-8', 'F-1 @ a-8', 'F-1 @ a-8', 'F-1 @ a-8', 'F-1 @ a-8', 'F-1 @ a-8', 'Fe-1 @ a-8', 'Fe-1 @ a-8', 'Fe-1 @ a-8', 'Li-1 @ a-8', 'Li-1 @ a-8', 'Li-1 @ a-8', 'Li-1 @ a-8', 'O-1 @ a-8']",-2.7676
mp-760863,Na4Ti7O16,6.5879,0.2559,91.4117,12.5441,94.3868,10.7069,2.4039,97.9995,235.5811,3.6128,"['Na-2 @ m-10', 'Na-2 @ n-10', 'O-2 @ m-10', 'O-2 @ m-10', 'O-2 @ n-10', 'O-2 @ n-10', 'O-4 @ o-10', 'O-4 @ o-10', 'Ti-1 @ a-10', 'Ti-1 @ d-10', 'Ti-1 @ f-10', 'Ti-4 @ o-10']",-3.155
mp-757233,Gd4Zr4O14,4.7587,0.1541,79.8285,4.7585,54.3262,3.9728,2.7903,84.5872,236.0236,30.261,"['Gd-4 @ c-227', 'O-12 @ f-227', 'O-2 @ a-227', 'Zr-4 @ d-227']",-3.8562
wbm-3-22782,Hf1Tl2F6,2.8863,0.0964,42.6263,4.0101,33.6769,4.8123,5.19,45.5126,236.2105,11.8357,"['F-6 @ i-164', 'Hf-1 @ a-164', 'Tl-2 @ d-164']",-3.2897
mp-756175,Zr4Bi4O14,6.6947,0.242,77.6077,7.6167,105.1006,9.8911,2.8026,84.3024,236.2659,20.7982,"['Bi-4 @ c-227', 'O-12 @ f-227', 'O-2 @ a-227', 'Zr-4 @ d-227']",-2.7794
mp-561442,Y4Hf4O14,4.5716,0.1334,66.0562,3.989,60.9131,5.0041,3.3496,70.6279,236.5752,9.7148,"['Hf-4 @ c-227', 'O-12 @ f-227', 'O-2 @ b-227', 'Y-4 @ d-227']",-4.007
mp-756066,Ho4Zr4O14,4.7473,0.1532,90.8923,5.8299,57.2371,4.1602,2.4831,95.6396,237.4828,38.4026,"['Ho-4 @ c-227', 'O-12 @ f-227', 'O-2 @ a-227', 'Zr-4 @ d-227']",-3.8732
mp-1218963,Sm1V2Bi1O8,4.863,0.1647,72.4619,5.3942,36.7125,3.3033,3.0769,77.3249,237.921,40.6124,"['Bi-1 @ a-119', 'O-4 @ i-119', 'O-4 @ i-119', 'Sm-1 @ c-119', 'V-1 @ b-119', 'V-1 @ d-119']",-2.6767
mp-31417,Nd6Ta2O14,4.7702,0.134,63.8324,6.9723,45.6553,3.6359,3.4716,68.6026,238.1609,22.9473,"['Nd-2 @ a-63', 'Nd-4 @ g-63', 'O-2 @ c-63', 'O-2 @ c-63', 'O-2 @ c-63', 'O-8 @ h-63', 'Ta-2 @ b-63']",-3.7562
wbm-2-37145,Cs2K1Ti1O1F5,2.4995,0.0689,57.8117,10.0461,69.3071,37.9795,3.96,60.3112,238.8323,8.9959,"['Cs-2 @ b-107', 'F-1 @ a-107', 'F-4 @ c-107', 'K-1 @ a-107', 'O-1 @ a-107', 'Ti-1 @ a-107']",-3.3378
mp-540794,Ba6Sr2Nb4O18,4.5541,0.1079,69.1609,13.5138,43.5378,3.5694,3.2445,73.715,239.1683,30.1771,"['Ba-2 @ b-194', 'Ba-4 @ f-194', 'Nb-4 @ f-194', 'O-12 @ k-194', 'O-6 @ h-194', 'Sr-2 @ a-194']",-3.2572
mp-1225854,Cs2Ta2W2O12,4.6675,0.1021,71.7774,7.4396,48.6198,10.5056,3.1466,76.445,240.5417,27.8252,"['Cs-2 @ e-74', 'O-2 @ e-74', 'O-2 @ e-74', 'O-8 @ j-74', 'Ta-2 @ a-74', 'W-2 @ c-74']",-2.7667
mp-756545,Er4Zr4O14,4.7116,0.1508,96.3429,6.4516,57.3394,4.1627,2.3925,101.0545,241.7729,43.7151,"['Er-4 @ c-227', 'O-12 @ f-227', 'O-2 @ a-227', 'Zr-4 @ d-227']",-3.8703
mp-755851,Ta4Mn4O14,5.5015,0.2876,117.1827,13.2905,160.3225,28.8386,1.9731,122.6842,242.0682,37.6383,"['Mn-4 @ c-227', 'O-12 @ f-227', 'O-2 @ a-227', 'Ta-4 @ d-227']",-2.8423
mp-673624,Mg1Nb2Pb3O9,6.8761,0.1416,105.9032,1317.3864,157.3255,543.5187,2.1515,112.7793,242.6447,44.5462,"['Mg-1 @ a-1', 'Nb-1 @ a-1', 'Nb-1 @ a-1', 'O-1 @ a-1', 'O-1 @ a-1', 'O-1 @ a-1', 'O-1 @ a-1', 'O-1 @ a-1', 'O-1 @ a-1', 'O-1 @ a-1', 'O-1 @ a-1', 'O-1 @ a-1', 'Pb-1 @ a-1', 'Pb-1 @ a-1', 'Pb-1 @ a-1']",-2.45
mp-23614,Sr2Nb4Bi4O18,6.2672,0.1414,84.5354,5.3069,80.457,5.7935,2.6757,90.8026,242.9605,10.3456,"['Bi-4 @ b-36', 'Nb-4 @ b-36', 'O-2 @ a-36', 'O-4 @ b-36', 'O-4 @ b-36', 'O-4 @ b-36', 'O-4 @ b-36', 'Sr-2 @ a-36']",-2.6904
mp-23611,Ba1Ta2Bi2O9,5.1379,0.0971,122.1019,4.2287,75.9123,30.6669,1.9121,127.2398,243.2952,51.3274,"['Ba-1 @ a-139', 'Bi-2 @ e-139', 'O-1 @ b-139', 'O-2 @ d-139', 'O-2 @ e-139', 'O-4 @ g-139', 'Ta-2 @ e-139']",-2.7937
mp-690560,Ti2Tl2W2O10F2,5.3113,0.1218,81.3022,10.3348,82.9393,18.0906,2.8106,86.6135,243.4359,3.6742,"['F-2 @ b-46', 'O-2 @ b-46', 'O-4 @ c-46', 'O-4 @ c-46', 'Ti-2 @ b-46', 'Tl-2 @ b-46', 'W-2 @ a-46']",-2.59
mp-5889,Er4Ti4O14,4.6733,0.1872,82.8291,6.0012,76.4817,6.7296,2.7899,87.5025,244.1232,11.0208,"['Er-4 @ c-227', 'O-12 @ f-227', 'O-2 @ a-227', 'Ti-4 @ d-227']",-3.7893
mp-18274,Ba8Li2Nb6O24,5.0452,0.1124,89.5791,10.1244,102.2076,11.4977,2.5815,94.6243,244.2726,7.5833,"['Ba-2 @ a-186', 'Ba-2 @ b-186', 'Ba-2 @ b-186', 'Ba-2 @ b-186', 'Li-2 @ a-186', 'Nb-2 @ a-186', 'Nb-2 @ b-186', 'Nb-2 @ b-186', 'O-6 @ c-186', 'O-6 @ c-186', 'O-6 @ c-186', 'O-6 @ c-186']",-3.2176
mp-997599,Na8Ta7V1O24,5.9853,0.143,187.957,261.1486,248.431,346.0734,1.2602,193.9423,244.4061,54.4887,"['Na-8 @ g-221', 'O-12 @ h-221', 'O-6 @ e-221', 'O-6 @ f-221', 'Ta-1 @ a-221', 'Ta-3 @ c-221', 'Ta-3 @ d-221', 'V-1 @ b-221']",-2.9516
mp-779477,Na8Ti8O20,4.8507,0.1138,59.2825,10.0251,57.1217,15.2848,3.8185,64.1332,244.8927,7.0115,"['Na-4 @ e-14', 'Na-4 @ e-14', 'O-4 @ e-14', 'O-4 @ e-14', 'O-4 @ e-14', 'O-4 @ e-14', 'O-4 @ e-14', 'Ti-4 @ e-14', 'Ti-4 @ e-14']",-3.0197
mp-35249,Sm4Hf4O14,4.7017,0.1341,61.0796,3.6898,62.1737,5.1385,3.7274,65.7813,245.1931,3.6075,"['Hf-4 @ c-227', 'O-12 @ f-227', 'O-2 @ b-227', 'Sm-4 @ d-227']",-4.0075
mp-770448,La8Ti12O36,5.7965,0.1429,87.9074,6.7941,33.8683,2.2277,2.6215,93.7039,245.6447,59.8356,"['La-4 @ c-62', 'La-4 @ c-62', 'O-4 @ c-62', 'O-4 @ c-62', 'O-4 @ c-62', 'O-4 @ c-62', 'O-4 @ c-62', 'O-8 @ d-62', 'O-8 @ d-62', 'Ti-4 @ a-62', 'Ti-4 @ c-62', 'Ti-4 @ c-62']",-3.6477
mp-1219552,Rb2Ti6Nb2O18,6.1047,0.1344,95.2383,7.9817,78.6196,18.9413,2.4247,101.343,245.7264,22.7234,"['Nb-2 @ a-31', 'O-2 @ a-31', 'O-2 @ a-31', 'O-2 @ a-31', 'O-2 @ a-31', 'O-2 @ a-31', 'O-2 @ a-31', 'O-2 @ a-31', 'O-2 @ a-31', 'O-2 @ a-31', 'Rb-2 @ a-31', 'Ti-2 @ a-31', 'Ti-2 @ a-31', 'Ti-2 @ a-31']",-3.2797
mp-558411,Y4Zr4O14,4.8069,0.1528,86.2355,5.4537,56.2491,4.2263,2.7028,91.0424,246.0693,34.7933,"['O-12 @ f-227', 'O-2 @ a-227', 'Y-4 @ c-227', 'Zr-4 @ d-227']",-3.8594
mp-685150,Pb2F4,3.0858,0.1027,50.9298,11.6444,24.4702,2.4501,4.5619,54.0157,246.4141,29.5455,"['F-4 @ b-41', 'Pb-2 @ a-41']",-2.6987
mp-760425,Tb4Zr4O14,4.8394,0.1508,86.026,5.3192,57.9941,4.3893,2.7126,90.8654,246.4816,32.8713,"['O-12 @ f-227', 'O-2 @ a-227', 'Tb-4 @ c-227', 'Zr-4 @ d-227']",-3.8786
mp-758836,Li4Ti3O8,5.6617,0.1782,135.2663,12.7022,146.5599,21.7404,1.749,140.928,246.483,5.6319,"['Li-1 @ a-166', 'Li-3 @ e-166', 'O-2 @ c-166', 'O-6 @ h-166', 'Ti-3 @ d-166']",-2.9978
wbm-1-41313,Hf1Sn1O4,4.8735,0.0876,77.108,6.9978,45.8123,7.6187,3.01,81.9814,246.7641,36.1691,"['Hf-1 @ a-119', 'O-2 @ e-119', 'O-2 @ f-119', 'Sn-1 @ c-119']",-3.0319
mp-861868,K2Na2La2Ta2O10,4.1803,0.1076,61.9241,8.3509,92.602,9.8507,3.7416,66.1044,247.3361,26.4976,"['K-2 @ a-129', 'La-2 @ b-129', 'Na-2 @ c-129', 'O-2 @ c-129', 'O-8 @ j-129', 'Ta-2 @ c-129']",-3.1602
mp-557890,Er4Hf4O14,4.4795,0.1356,77.7948,4.6908,64.5797,5.1865,3.0068,82.2742,247.3822,17.6946,"['Er-4 @ c-227', 'Hf-4 @ d-227', 'O-12 @ f-227', 'O-2 @ a-227']",-4.0198
mp-16792,Ba8Li2Ta6O24,4.7069,0.102,74.9152,10.4066,80.4004,11.3057,3.107,79.6221,247.3858,0.7783,"['Ba-2 @ a-186', 'Ba-2 @ b-186', 'Ba-2 @ b-186', 'Ba-2 @ b-186', 'Li-2 @ a-186', 'O-6 @ c-186', 'O-6 @ c-186', 'O-6 @ c-186', 'O-6 @ c-186', 'Ta-2 @ a-186', 'Ta-2 @ b-186', 'Ta-2 @ b-186']",-3.3793
mp-1228131,Ba4Nb2W1O12,5.398,0.0959,84.8428,10.1976,40.0265,3.4962,2.7513,90.2408,248.2794,50.2143,"['Ba-1 @ a-160', 'Ba-1 @ a-160', 'Ba-1 @ a-160', 'Ba-1 @ a-160', 'Nb-1 @ a-160', 'Nb-1 @ a-160', 'O-3 @ b-160', 'O-3 @ b-160', 'O-3 @ b-160', 'O-3 @ b-160', 'W-1 @ a-160']",-3.1085
mp-558159,Ba4Ti8O20,5.1704,0.1134,83.3227,15.4247,40.6021,3.803,2.8063,88.4931,248.3383,47.891,"['Ba-4 @ c-62', 'O-4 @ c-62', 'O-4 @ c-62', 'O-4 @ c-62', 'O-4 @ c-62', 'O-4 @ c-62', 'Ti-4 @ c-62', 'Ti-4 @ c-62']",-3.5417
wbm-1-40361,Ca2Zr1O4,4.3512,0.0889,80.2054,12.2945,167.4668,70.1862,2.94,84.5565,248.5962,82.9103,"['Ca-2 @ e-139', 'O-2 @ c-139', 'O-2 @ e-139', 'Zr-1 @ a-139']",-3.4205
mp-3200,Lu4Ti4O14,4.6199,0.1863,91.1002,6.2113,85.7267,7.1881,2.6066,95.7201,249.5039,9.9934,"['Lu-4 @ c-227', 'O-12 @ f-227', 'O-2 @ a-227', 'Ti-4 @ d-227']",-3.7927
mp-754302,Dy4Zr4O14,4.7749,0.1546,90.9985,6.05,57.7941,4.2777,2.6097,95.7734,249.9399,37.9793,"['Dy-4 @ c-227', 'O-12 @ f-227', 'O-2 @ a-227', 'Zr-4 @ d-227']",-3.8765
mp-1228197,Ba3In2W1O9,4.6558,0.0965,87.5939,4.3339,46.8114,7.7387,2.7113,92.2497,250.1166,45.4383,"['Ba-1 @ a-164', 'Ba-2 @ d-164', 'In-2 @ d-164', 'O-3 @ e-164', 'O-6 @ i-164', 'W-1 @ b-164']",-2.6051
mp-554082,Ho4Hf4O14,4.5106,0.1358,72.5741,4.1532,63.3417,5.1417,3.2562,77.0847,251.0031,13.743,"['Hf-4 @ c-227', 'Ho-4 @ d-227', 'O-12 @ f-227', 'O-2 @ b-227']",-4.022
wbm-1-39981,Ti4Pb4O12,6.4448,0.1731,89.7504,9.5385,49.4711,10.192,2.61,96.1952,251.0694,46.724,"['O-2 @ a-9', 'O-2 @ a-9', 'O-2 @ a-9', 'O-2 @ a-9', 'O-2 @ a-9', 'O-2 @ a-9', 'Pb-2 @ a-9', 'Pb-2 @ a-9', 'Ti-2 @ a-9', 'Ti-2 @ a-9']",-2.6654
mp-998743,Tl2Ge2Cl6,3.5886,0.0979,69.0561,25.8202,98.0743,6.899,3.4586,72.6447,251.2489,25.4296,"['Cl-2 @ e-11', 'Cl-4 @ f-11', 'Ge-2 @ e-11', 'Tl-2 @ e-11']",-1.2742
mp-1220331,Nd2Mg4Ta2O12,4.7198,0.0947,91.2887,24.3527,64.7445,12.1994,2.6203,96.0085,251.5711,31.264,"['Mg-2 @ a-74', 'Mg-2 @ b-74', 'Nd-2 @ c-74', 'O-2 @ e-74', 'O-2 @ e-74', 'O-8 @ j-74', 'Ta-2 @ d-74']",-3.1852
mp-755731,Ta4Pb4O14,7.0999,0.2957,148.3373,9.5532,175.439,25.7299,1.6249,155.4372,252.5699,20.0018,"['O-12 @ f-227', 'O-2 @ a-227', 'Pb-4 @ c-227', 'Ta-4 @ d-227']",-2.7082
mp-1227770,Ca4La2Zr4O15,4.7362,0.1088,76.1332,11.207,46.6227,2.9992,3.1336,80.8694,253.4124,34.2468,"['Ca-1 @ a-166', 'Ca-1 @ b-166', 'Ca-2 @ c-166', 'La-2 @ c-166', 'O-3 @ d-166', 'O-6 @ h-166', 'O-6 @ h-166', 'Zr-2 @ c-166', 'Zr-2 @ c-166']",-3.4943
mp-1210449,Na4Mg2V2F14,2.1362,0.0645,98.4959,10.597,51.1256,31.8178,2.5192,100.6321,253.5124,49.5065,"['F-2 @ e-74', 'F-4 @ h-74', 'F-8 @ j-74', 'Mg-2 @ c-74', 'Na-2 @ a-74', 'Na-2 @ d-74', 'V-2 @ b-74']",-3.3531
mp-540795,Ba6Sr2Ta4O18,4.3849,0.1065,62.3663,9.2943,39.6214,4.6087,3.8044,66.7511,253.9481,27.1297,"['Ba-2 @ b-194', 'Ba-4 @ f-194', 'O-12 @ k-194', 'O-6 @ h-194', 'Sr-2 @ a-194', 'Ta-4 @ f-194']",-3.399
mp-1223254,La2Mg4Ta2O12,4.708,0.0961,92.5227,25.5729,59.1289,9.2201,2.6145,97.2307,254.2096,38.1017,"['La-2 @ a-74', 'Mg-2 @ c-74', 'Mg-2 @ d-74', 'O-2 @ e-74', 'O-2 @ e-74', 'O-8 @ j-74', 'Ta-2 @ b-74']",-3.2077
mp-29252,Sn8Cl4F12,3.7933,0.1331,67.5813,4.2311,69.6231,3.81,3.5658,71.3746,254.5075,1.7515,"['Cl-4 @ a-198', 'F-12 @ b-198', 'Sn-4 @ a-198', 'Sn-4 @ a-198']",-2.2917
mp-12533,La4Hf4O14,4.808,0.1302,55.6572,3.4257,64.5223,5.194,4.2328,60.4651,255.9369,4.0572,"['Hf-4 @ c-227', 'La-4 @ d-227', 'O-12 @ f-227', 'O-2 @ b-227']",-4.0519
mp-3611,Dy4Hf4O14,4.5401,0.1358,71.5849,4.1735,63.0663,5.2612,3.3635,76.125,256.0465,13.0587,"['Dy-4 @ c-227', 'Hf-4 @ d-227', 'O-12 @ f-227', 'O-2 @ a-227']",-4.0243
mp-5472,Nb4Cd4O14,6.5767,0.2081,117.0796,12.5596,149.3339,18.3959,2.0819,123.6563,257.4401,25.6776,"['Cd-4 @ c-227', 'Nb-4 @ d-227', 'O-12 @ f-227', 'O-2 @ a-227']",-2.4708
mp-3834,Ba1Zr1O3,5.0688,0.1092,70.63,10.1918,78.6816,6.2062,3.4102,75.6988,258.1479,2.9828,"['Ba-1 @ a-221', 'O-3 @ c-221', 'Zr-1 @ b-221']",-3.6483
mp-677378,Ti2Nb2Tl2O8F4,5.3676,0.1349,94.2292,8.0549,109.0955,12.2592,2.5927,99.5969,258.2248,9.4986,"['F-2 @ a-9', 'F-2 @ a-9', 'Nb-2 @ a-9', 'O-2 @ a-9', 'O-2 @ a-9', 'O-2 @ a-9', 'O-2 @ a-9', 'Ti-2 @ a-9', 'Tl-2 @ a-9']",-3.0225
mp-554475,La4Nb8Cl4O24,5.6136,0.1044,95.1491,9.3452,55.8071,5.6721,2.5681,100.7627,258.7686,44.9555,"['Cl-4 @ c-62', 'La-4 @ c-62', 'Nb-4 @ a-62', 'Nb-4 @ c-62', 'O-4 @ c-62', 'O-4 @ c-62', 'O-8 @ d-62', 'O-8 @ d-62']",-3.2136
mp-1223445,K1Nb4Bi5O18,7.1523,0.1966,90.756,8.4129,70.2818,7.5266,2.6455,97.9082,259.0162,27.6264,"['Bi-1 @ a-8', 'Bi-2 @ b-8', 'Bi-2 @ b-8', 'K-1 @ a-8', 'Nb-2 @ b-8', 'Nb-2 @ b-8', 'O-1 @ a-8', 'O-1 @ a-8', 'O-2 @ b-8', 'O-2 @ b-8', 'O-2 @ b-8', 'O-2 @ b-8', 'O-2 @ b-8', 'O-2 @ b-8', 'O-2 @ b-8', 'O-2 @ b-8']",-2.4231
mp-559426,Pr4Zr4O14,5.0673,0.1519,67.4274,3.6991,58.3755,4.7409,3.573,72.4947,259.0237,14.1192,"['O-12 @ f-227', 'O-2 @ a-227', 'Pr-4 @ c-227', 'Zr-4 @ d-227']",-3.8418
mp-557719,Pb4S4,9.7679,1.4178,114.8955,9.8471,127.4062,13.2025,2.0794,124.6634,259.2251,2.7427,"['Pb-4 @ f-64', 'S-4 @ f-64']",-0.8066
mp-1173546,Nb8Pb6O26,6.1368,0.1135,110.4247,7.7383,52.6782,30.8747,2.2294,116.5615,259.8621,63.8833,"['Nb-2 @ a-51', 'Nb-2 @ d-51', 'Nb-4 @ k-51', 'O-2 @ e-51', 'O-2 @ e-51', 'O-2 @ e-51', 'O-2 @ f-51', 'O-2 @ f-51', 'O-8 @ l-51', 'O-8 @ l-51', 'Pb-2 @ c-51', 'Pb-4 @ k-51']",-2.6543
mp-27167,Sn4I2F6,4.8027,0.1425,102.2342,6.1427,109.9717,5.3017,2.4336,107.0369,260.4849,2.9349,"['F-2 @ a-20', 'F-4 @ c-20', 'I-2 @ a-20', 'Sn-4 @ c-20']",-2.0656
mp-1217779,Ta4Bi2O12F2,5.8698,0.1608,104.7529,34.2427,44.6444,14.0373,2.3652,110.6227,261.6448,65.9783,"['Bi-2 @ a-74', 'F-2 @ e-74', 'O-2 @ e-74', 'O-2 @ e-74', 'O-8 @ j-74', 'Ta-2 @ b-74', 'Ta-2 @ c-74']",-2.9724
mp-1223270,K2Y2Ta4O14,4.9883,0.122,114.0873,19.4431,107.3597,52.0209,2.2072,119.0756,262.8238,11.7159,"['K-2 @ a-74', 'O-2 @ e-74', 'O-2 @ e-74', 'O-2 @ e-74', 'O-8 @ j-74', 'Ta-2 @ b-74', 'Ta-2 @ c-74', 'Y-2 @ d-74']",-3.3499
mp-558920,Na8Nb8O24,5.48,0.1368,103.7242,21.6354,61.5564,9.7975,2.4077,109.2043,262.9311,47.6479,"['Na-4 @ a-29', 'Na-4 @ a-29', 'Nb-4 @ a-29', 'Nb-4 @ a-29', 'O-4 @ a-29', 'O-4 @ a-29', 'O-4 @ a-29', 'O-4 @ a-29', 'O-4 @ a-29', 'O-4 @ a-29']",-2.8402
wbm-3-56841,Cs2Rb1Ti1O1F5,2.5156,0.0692,63.5833,12.6399,64.0541,29.2793,3.98,66.0989,263.0736,2.0448,"['Cs-2 @ b-107', 'F-1 @ a-107', 'F-4 @ c-107', 'O-1 @ a-107', 'Rb-1 @ a-107', 'Ti-1 @ a-107']",-3.3175
mp-559982,Na4Al2Zn2F14,2.1452,0.0739,50.6638,12.1189,42.531,28.1746,5.0093,52.809,264.5359,10.278,"['Al-2 @ a-74', 'F-2 @ e-74', 'F-4 @ h-74', 'F-8 @ j-74', 'Na-2 @ b-74', 'Na-2 @ c-74', 'Zn-2 @ d-74']",-3.2547
mp-773663,Na8Ti8O20,4.6123,0.4726,63.6374,63.0167,31.2457,6.6584,3.8807,68.2497,264.8568,37.0041,"['Na-4 @ a-29', 'Na-4 @ a-29', 'O-4 @ a-29', 'O-4 @ a-29', 'O-4 @ a-29', 'O-4 @ a-29', 'O-4 @ a-29', 'Ti-4 @ a-29', 'Ti-4 @ a-29']",-2.9907
mp-1190845,Nd4Hf4O14,4.7706,0.1322,60.5352,3.7499,66.0923,5.4178,4.0703,65.3059,265.8145,0.7864,"['Hf-4 @ c-227', 'Nd-4 @ d-227', 'O-12 @ f-227', 'O-2 @ b-227']",-3.9905
mp-27832,Tl2Sn1Cl6,3.577,0.0872,97.3239,6.1812,104.8873,9.7315,2.6353,100.9009,265.9041,3.9864,"['Cl-6 @ e-225', 'Sn-1 @ a-225', 'Tl-2 @ c-225']",-1.4204
mp-28041,Pb18Br20O8,5.4911,0.1187,86.5461,18.4486,31.1112,3.7901,2.9018,92.0372,267.0736,60.926,"['Br-2 @ a-85', 'Br-2 @ c-85', 'Br-8 @ g-85', 'Br-8 @ g-85', 'O-8 @ g-85', 'Pb-2 @ c-85', 'Pb-8 @ g-85', 'Pb-8 @ g-85']",-1.1593
mp-4408,Sm4Zr4O14,4.9448,0.1563,78.9043,5.0447,58.9221,4.4347,3.1936,83.8491,267.7805,24.927,"['O-12 @ f-227', 'O-2 @ a-227', 'Sm-4 @ c-227', 'Zr-4 @ d-227']",-3.8654
wbm-3-23344,Cs2Rb1Tb1F6,2.3442,0.0786,40.7076,5.0302,9.3353,0.5413,6.24,43.0517,268.6427,33.7164,"['Cs-2 @ i-2', 'F-2 @ i-2', 'F-2 @ i-2', 'F-2 @ i-2', 'Rb-1 @ a-2', 'Tb-1 @ f-2']",-3.6015
mp-1173720,Na1Ho2F7,2.3771,0.0789,38.5821,10.8917,11.6737,0.8406,6.6014,40.9592,270.3882,29.2855,"['F-1 @ a-1', 'F-1 @ a-1', 'F-1 @ a-1', 'F-1 @ a-1', 'F-1 @ a-1', 'F-1 @ a-1', 'F-1 @ a-1', 'Ho-1 @ a-1', 'Ho-1 @ a-1', 'Na-1 @ a-1']",-4.1259
wbm-3-23363,Cs2Rb1Y1F6,2.3143,0.0791,40.8431,5.0061,9.2924,0.5289,6.27,43.1575,270.5973,33.8651,"['Cs-2 @ i-2', 'F-2 @ i-2', 'F-2 @ i-2', 'F-2 @ i-2', 'Rb-1 @ a-2', 'Y-1 @ f-2']",-3.5947
mp-4681,Na4Nb4O12,5.6633,0.1227,108.6023,17.8856,101.0364,11.4747,2.3685,114.2656,270.6381,13.2292,"['Na-2 @ a-26', 'Na-2 @ b-26', 'Nb-4 @ c-26', 'O-2 @ a-26', 'O-2 @ b-26', 'O-4 @ c-26', 'O-4 @ c-26']",-2.8418