material_id,formula,diel_elec_wren,diel_elec_ale,diel_ionic_wren,diel_ionic_ale,diel_total_wren,diel_total_ale,bandgap_pbe,diel_total_wren_indi,fom_wren,ae_indi_direct,wyckoff,e_form
wbm-2-36073,Sr2Nd1Ta1O6,4.5458,0.0895,32.7003,1.6953,30.9941,2.5406,3.52,37.2461,131.1063,6.252,"['Nd-1 @ a-12', 'O-2 @ i-12', 'O-4 @ j-12', 'Sr-2 @ i-12', 'Ta-1 @ d-12']",-3.5124
mp-774797,Li8Ti12Zn4O32,5.0656,0.1497,36.8672,1.5755,37.9109,5.785,3.127,41.9328,131.124,4.0219,"['Li-4 @ a-198', 'Li-4 @ a-198', 'O-12 @ b-198', 'O-12 @ b-198', 'O-4 @ a-198', 'O-4 @ a-198', 'Ti-12 @ b-198', 'Zn-4 @ a-198']",-3.0691
wbm-3-54985,Sr2Nd1Ta1O6,4.4931,0.0928,31.7309,2.4724,41.0781,5.5781,3.62,36.2239,131.1307,4.8542,"['Nd-1 @ a-87', 'O-2 @ e-87', 'O-4 @ h-87', 'Sr-2 @ d-87', 'Ta-1 @ b-87']",-3.4923
mp-754550,Tb6Ta2O14,4.6846,0.0998,33.8635,1.5219,31.0612,1.687,3.402,38.5481,131.1408,7.487,"['O-2 @ c-63', 'O-4 @ g-63', 'O-8 @ h-63', 'Ta-2 @ a-63', 'Tb-2 @ b-63', 'Tb-4 @ g-63']",-3.8431
mp-5449,Na2Ti6O13,5.3305,0.1743,39.3172,2.591,40.9635,5.894,2.9374,44.6476,131.148,3.6842,"['Na-2 @ i-12', 'O-1 @ a-12', 'O-2 @ i-12', 'O-2 @ i-12', 'O-2 @ i-12', 'O-2 @ i-12', 'O-2 @ i-12', 'O-2 @ i-12', 'Ti-2 @ i-12', 'Ti-2 @ i-12', 'Ti-2 @ i-12']",-3.3263
wbm-3-54886,Sr2Er1Ta1O6,4.4659,0.0939,30.2718,1.7191,28.9166,2.2774,3.78,34.7377,131.3086,5.8211,"['Er-1 @ a-12', 'O-2 @ i-12', 'O-4 @ j-12', 'Sr-2 @ i-12', 'Ta-1 @ d-12']",-3.6243
mp-557163,Ta2Pb2F14,2.941,0.0998,22.5495,1.7614,25.6957,2.0988,5.1521,25.4904,131.3291,0.2053,"['F-2 @ e-11', 'F-2 @ e-11', 'F-2 @ e-11', 'F-4 @ f-11', 'F-4 @ f-11', 'Pb-2 @ e-11', 'Ta-2 @ e-11']",-3.3421
mp-780772,Ta6O15,5.8556,0.1078,37.6571,1.464,38.0624,1.431,3.0188,43.5127,131.3562,5.4503,"['O-1 @ a-8', 'O-1 @ a-8', 'O-1 @ a-8', 'O-1 @ a-8', 'O-1 @ a-8', 'O-1 @ a-8', 'O-1 @ a-8', 'O-2 @ b-8', 'O-2 @ b-8', 'O-2 @ b-8', 'O-2 @ b-8', 'Ta-1 @ a-8', 'Ta-1 @ a-8', 'Ta-1 @ a-8', 'Ta-1 @ a-8', 'Ta-2 @ b-8']",-3.2894
mp-1244761,Mg2V8O18,5.7283,0.1968,49.7207,44.3947,14.1718,0.7462,2.369,55.449,131.3587,41.2773,"['Mg-2 @ c-85', 'O-2 @ a-85', 'O-8 @ g-85', 'O-8 @ g-85', 'V-8 @ g-85']",-2.5051
mp-776018,Sr6Ti6O18,5.2145,0.1671,70.4748,12.2346,76.6499,6.8841,1.7367,75.6893,131.4496,0.9606,"['O-12 @ k-194', 'O-6 @ h-194', 'Sr-2 @ b-194', 'Sr-4 @ f-194', 'Ti-2 @ a-194', 'Ti-4 @ f-194']",-3.5223
wbm-1-39180,Na4Zr2O6,3.9335,0.0805,32.5871,1.9413,35.8979,2.8558,3.6,36.5206,131.4741,0.6227,"['Na-2 @ e-15', 'Na-2 @ e-15', 'O-2 @ c-15', 'O-4 @ f-15', 'Zr-2 @ e-15']",-2.8336
wbm-1-42055,Ca2Ta1Ga1O6,4.5414,0.0822,27.0203,2.0823,55.2983,6.8734,4.17,31.5618,131.6126,23.7365,"['Ca-2 @ d-87', 'Ga-1 @ a-87', 'O-2 @ e-87', 'O-4 @ h-87', 'Ta-1 @ b-87']",-3.1655
mp-754741,Zr4O8,4.9851,0.1487,33.4312,1.5585,32.1107,1.9204,3.4273,38.4163,131.6641,6.3056,"['O-8 @ d-62', 'Zr-4 @ c-62']",-3.7396
mp-769333,Ca8Ta4O18,4.3749,0.0898,27.0983,1.1591,31.7497,2.5877,4.1834,31.4732,131.6651,0.2765,"['Ca-1 @ a-2', 'Ca-1 @ b-2', 'Ca-2 @ i-2', 'Ca-2 @ i-2', 'Ca-2 @ i-2', 'O-2 @ i-2', 'O-2 @ i-2', 'O-2 @ i-2', 'O-2 @ i-2', 'O-2 @ i-2', 'O-2 @ i-2', 'O-2 @ i-2', 'O-2 @ i-2', 'O-2 @ i-2', 'Ta-2 @ i-2', 'Ta-2 @ i-2']",-3.4594
wbm-1-38358,Ca2Zr2O6,4.5692,0.0969,23.7533,1.2876,26.9362,0.9995,4.65,28.3224,131.6994,1.3862,"['Ca-2 @ c-148', 'O-6 @ f-148', 'Zr-2 @ c-148']",-3.6775
mp-1223364,K1Na1Nb2O6,5.2214,0.115,59.6353,3.0056,60.4444,4.1187,2.0319,64.8567,131.7824,4.4123,"['K-1 @ a-6', 'Na-1 @ a-6', 'Nb-1 @ b-6', 'Nb-1 @ b-6', 'O-1 @ a-6', 'O-1 @ a-6', 'O-1 @ b-6', 'O-1 @ b-6', 'O-1 @ b-6', 'O-1 @ b-6']",-2.8441
mp-6478,Li2Ta2Ge2O10,4.3573,0.1009,30.4225,2.5529,37.8689,4.063,3.7908,34.7798,131.8433,3.0891,"['Ge-2 @ e-15', 'Li-2 @ e-15', 'O-2 @ e-15', 'O-4 @ f-15', 'O-4 @ f-15', 'Ta-2 @ a-15']",-2.7668
mp-21896,Na4W4O14,4.0311,0.0963,52.3081,4.1765,12.8028,0.896,2.3428,56.3392,131.9915,43.5364,"['Na-2 @ a-36', 'Na-2 @ a-36', 'O-2 @ a-36', 'O-2 @ a-36', 'O-2 @ a-36', 'O-2 @ a-36', 'O-2 @ a-36', 'O-2 @ a-36', 'O-2 @ a-36', 'W-2 @ a-36', 'W-2 @ a-36']",-2.2242
mp-1194755,Th6Tl2F26,2.623,0.0701,20.4504,1.0101,21.421,1.7703,5.7237,23.0733,132.0649,1.6523,"['F-2 @ a-26', 'F-2 @ a-26', 'F-2 @ a-26', 'F-2 @ b-26', 'F-2 @ b-26', 'F-4 @ c-26', 'F-4 @ c-26', 'F-4 @ c-26', 'F-4 @ c-26', 'Th-2 @ a-26', 'Th-4 @ c-26', 'Tl-2 @ b-26']",-4.2429
wbm-2-36078,Sr2Pr1Ta1O6,4.5503,0.0885,33.4077,1.6407,30.743,2.5521,3.48,37.9579,132.0936,7.2149,"['O-2 @ i-12', 'O-4 @ j-12', 'Pr-1 @ a-12', 'Sr-2 @ i-12', 'Ta-1 @ d-12']",-3.4934
mp-1223091,La2Ti3Co1O10,5.5331,0.1332,69.7511,7.6747,72.6413,19.0828,1.7546,75.2842,132.0937,2.6429,"['Co-1 @ a-119', 'La-2 @ f-119', 'O-2 @ e-119', 'O-2 @ e-119', 'O-2 @ e-119', 'O-2 @ f-119', 'O-2 @ f-119', 'Ti-1 @ c-119', 'Ti-2 @ f-119']",-3.3939
mp-21190,Pb2S2O6,3.8541,0.0922,37.1167,1.6113,31.8565,2.652,3.2251,40.9708,132.1349,9.1143,"['O-2 @ e-11', 'O-4 @ f-11', 'Pb-2 @ e-11', 'S-2 @ e-11']",-1.7248
mp-1208846,Sr8Co4Si8O28,14.4731,140.0975,24.7965,3.4274,89.7232,18.5684,3.365,39.2696,132.1424,50.4535,"['Co-4 @ a-113', 'O-16 @ f-113', 'O-4 @ c-113', 'O-8 @ e-113', 'Si-8 @ e-113', 'Sr-8 @ e-113']",-3.1232
mp-1188841,Ba1Nb2V2O11,5.6788,0.1505,56.2712,3.4637,36.0403,2.7597,2.1339,61.95,132.1952,25.9098,"['Ba-1 @ a-166', 'Nb-2 @ c-166', 'O-2 @ c-166', 'O-3 @ d-166', 'O-6 @ h-166', 'V-2 @ c-166']",-2.8756
mp-1218012,Ta1Fe1Pb2O6,5.9628,0.1352,53.5885,3.2023,48.6361,7.6176,2.2213,59.5513,132.2813,10.9152,"['Fe-1 @ a-225', 'O-6 @ e-225', 'Pb-2 @ c-225', 'Ta-1 @ b-225']",-2.2214
wbm-2-36107,Sr2Sm1Ta1O6,4.5258,0.0906,32.3259,1.7437,30.707,2.4018,3.59,36.8517,132.2976,6.1447,"['O-2 @ i-12', 'O-4 @ j-12', 'Sm-1 @ a-12', 'Sr-2 @ i-12', 'Ta-1 @ d-12']",-3.5452
mp-14873,K4Nb8Si1P4O34,4.696,0.1061,65.4529,5.751,77.5913,11.3635,1.8861,70.1489,132.3079,7.4424,"['K-1 @ a-115', 'K-1 @ b-115', 'K-2 @ g-115', 'Nb-4 @ i-115', 'Nb-4 @ j-115', 'O-2 @ g-115', 'O-4 @ j-115', 'O-4 @ k-115', 'O-8 @ l-115', 'O-8 @ l-115', 'O-8 @ l-115', 'P-4 @ h-115', 'Si-1 @ d-115']",-2.9547
mp-14482,Sr1Nb6O16,6.8595,0.1501,70.3528,9.3656,79.9726,8.2934,1.7137,77.2122,132.3186,2.7604,"['Nb-1 @ a-38', 'Nb-1 @ a-38', 'Nb-2 @ d-38', 'Nb-2 @ d-38', 'O-1 @ a-38', 'O-1 @ a-38', 'O-1 @ b-38', 'O-1 @ b-38', 'O-2 @ d-38', 'O-2 @ d-38', 'O-2 @ d-38', 'O-2 @ d-38', 'O-2 @ e-38', 'O-2 @ e-38', 'Sr-1 @ b-38']",-3.0994
wbm-1-41945,Ba2Dy1Ta1O6,4.6609,0.0985,33.4725,2.6029,40.1783,4.0997,3.47,38.1334,132.323,2.0448,"['Ba-2 @ d-87', 'Dy-1 @ a-87', 'O-2 @ e-87', 'O-4 @ h-87', 'Ta-1 @ b-87']",-3.5918
mp-1220931,Na4Sc4Ti4O16,5.2875,0.2198,47.2043,3.6667,84.0034,8.5821,2.5233,52.4918,132.4526,31.5116,"['Na-2 @ a-26', 'Na-2 @ b-26', 'O-2 @ a-26', 'O-2 @ a-26', 'O-2 @ a-26', 'O-2 @ a-26', 'O-2 @ b-26', 'O-2 @ b-26', 'O-2 @ b-26', 'O-2 @ b-26', 'Sc-2 @ a-26', 'Sc-2 @ a-26', 'Ti-2 @ b-26', 'Ti-2 @ b-26']",-3.359
mp-1212176,Hf4Tl4F20,2.6725,0.0826,25.1253,2.3191,18.5399,1.3554,4.767,27.7979,132.5124,9.2579,"['F-4 @ e-14', 'F-4 @ e-14', 'F-4 @ e-14', 'F-4 @ e-14', 'F-4 @ e-14', 'Hf-4 @ e-14', 'Tl-4 @ e-14']",-3.6061
wbm-2-15315,Al1Tl3F6,3.1085,0.0992,30.6245,3.6593,23.7026,1.6539,3.93,33.733,132.5708,10.0305,"['Al-1 @ a-225', 'F-6 @ e-225', 'Tl-1 @ b-225', 'Tl-2 @ c-225']",-2.7865
wbm-2-36112,Sr2Tb1Ta1O6,4.5013,0.0929,31.3363,1.7235,29.3493,2.2166,3.7,35.8376,132.5991,6.4883,"['O-2 @ i-12', 'O-4 @ j-12', 'Sr-2 @ i-12', 'Ta-1 @ a-12', 'Tb-1 @ d-12']",-3.5932
mp-1212985,Er4Sc4O12,4.8019,0.0926,25.0048,1.2184,25.7661,1.2632,4.4501,29.8067,132.6427,4.0406,"['Er-4 @ c-62', 'O-4 @ c-62', 'O-8 @ d-62', 'Sc-4 @ a-62']",-3.9812
wbm-2-36372,K2Yb1Ta2O7,4.136,0.0958,61.2179,9.8969,77.1605,8.943,2.03,65.3539,132.6685,11.8066,"['K-2 @ e-139', 'O-1 @ a-139', 'O-2 @ e-139', 'O-4 @ g-139', 'Ta-2 @ e-139', 'Yb-1 @ b-139']",-3.1876
mp-756088,Sr4Ta4N4O8,7.1181,0.2485,81.6902,6.2315,47.1624,11.4567,1.4941,88.8083,132.6885,41.6459,"['N-2 @ a-7', 'N-2 @ a-7', 'O-2 @ a-7', 'O-2 @ a-7', 'O-2 @ a-7', 'O-2 @ a-7', 'Sr-2 @ a-7', 'Sr-2 @ a-7', 'Ta-2 @ a-7', 'Ta-2 @ a-7']",-2.7606
mp-13056,Ba2La1Ta1O6,4.7605,0.108,31.5519,1.3935,31.3331,1.4954,3.6566,36.3124,132.7801,4.9793,"['Ba-2 @ c-148', 'La-1 @ a-148', 'O-6 @ f-148', 'Ta-1 @ b-148']",-3.5163
mp-18051,La8Ti4O20,4.9431,0.1186,35.393,3.1557,33.5455,1.9714,3.2925,40.3361,132.8066,6.7906,"['La-4 @ c-62', 'La-4 @ c-62', 'O-4 @ c-62', 'O-4 @ c-62', 'O-4 @ c-62', 'O-4 @ c-62', 'O-4 @ c-62', 'Ti-4 @ c-62']",-3.864
mp-1222492,Li3Er1Br6,3.1636,0.1075,26.8738,1.7116,11.0764,0.8818,4.4222,30.0374,132.8314,18.961,"['Br-2 @ c-5', 'Br-2 @ c-5', 'Br-2 @ c-5', 'Er-1 @ a-5', 'Li-1 @ a-5', 'Li-1 @ a-5', 'Li-1 @ b-5']",-1.6829
wbm-3-23314,Rb3Gd1F6,2.1061,0.0668,27.0928,3.0167,9.5766,0.4104,4.55,29.1989,132.8549,19.6222,"['F-2 @ c-5', 'F-2 @ c-5', 'F-2 @ c-5', 'Gd-1 @ a-5', 'Rb-1 @ b-5', 'Rb-2 @ c-5']",-3.5577
wbm-3-55556,Ba2Th1Zr1O6,4.6509,0.0879,30.2391,2.1557,32.0736,3.3876,3.81,34.89,132.9308,2.8164,"['Ba-2 @ d-87', 'O-2 @ e-87', 'O-4 @ h-87', 'Th-1 @ a-87', 'Zr-1 @ b-87']",-3.695
mp-1220787,Na1La1Zr2O6,4.4525,0.0955,31.1408,1.7346,41.3681,8.1842,3.737,35.5933,133.0121,5.7748,"['La-1 @ a-44', 'Na-1 @ b-44', 'O-1 @ a-44', 'O-1 @ b-44', 'O-4 @ e-44', 'Zr-2 @ c-44']",-3.5541
wbm-3-23995,Tm2Pb1F8,2.5801,0.0991,24.7434,2.7484,19.138,2.1601,4.87,27.3234,133.0652,8.1854,"['F-2 @ i-12', 'F-2 @ i-12', 'F-2 @ i-12', 'F-2 @ i-12', 'Pb-1 @ a-12', 'Tm-2 @ i-12']",-3.9804
mp-1222344,Li2Ta2Ge2O10,4.3324,0.0958,30.734,8.9335,31.3172,3.0453,3.7967,35.0665,133.1368,3.7493,"['Ge-2 @ a-9', 'Li-2 @ a-9', 'O-2 @ a-9', 'O-2 @ a-9', 'O-2 @ a-9', 'O-2 @ a-9', 'O-2 @ a-9', 'Ta-2 @ a-9']",-2.7686
mp-8154,La4Ti4O14,5.3495,0.1349,38.9536,1.8303,28.5479,2.1703,3.0054,44.3031,133.1486,15.7553,"['La-2 @ a-36', 'La-2 @ a-36', 'O-2 @ a-36', 'O-2 @ a-36', 'O-2 @ a-36', 'O-2 @ a-36', 'O-2 @ a-36', 'O-2 @ a-36', 'O-2 @ a-36', 'Ti-2 @ a-36', 'Ti-2 @ a-36']",-3.7856
wbm-3-23878,Ho2Pb1F8,2.6433,0.0986,24.0965,2.8663,16.9271,1.4071,4.98,26.7398,133.164,9.8126,"['F-2 @ i-12', 'F-2 @ i-12', 'F-2 @ i-12', 'F-2 @ i-12', 'Ho-2 @ i-12', 'Pb-1 @ a-12']",-3.9741
mp-1207064,Ba2Tb1Ta1O6,4.6587,0.1001,33.2509,2.5554,39.7622,3.9576,3.513,37.9096,133.1764,1.8527,"['Ba-2 @ d-87', 'O-2 @ e-87', 'O-4 @ h-87', 'Ta-1 @ a-87', 'Tb-1 @ b-87']",-3.5817
mp-754769,Ti8O16,6.1209,0.0952,51.9542,4.2565,28.0966,1.6999,2.2943,58.0752,133.2418,29.9785,"['O-4 @ c-62', 'O-4 @ c-62', 'O-4 @ c-62', 'O-4 @ c-62', 'Ti-4 @ c-62', 'Ti-4 @ c-62']",-3.4592
mp-390,Ti2O4,7.1862,0.1611,57.4208,4.3279,65.9791,4.5329,2.0625,64.607,133.2519,1.3721,"['O-4 @ e-141', 'Ti-2 @ a-141']",-3.5054
wbm-1-41043,Nd2Ta2O8,5.3269,0.1397,33.1182,1.5934,33.4781,2.0102,3.47,38.4451,133.4046,4.967,"['Nd-2 @ a-36', 'O-2 @ a-36', 'O-2 @ a-36', 'O-2 @ a-36', 'O-2 @ a-36', 'Ta-2 @ a-36']",-3.644
wbm-3-23308,Cs1Rb2Y1F6,2.2303,0.0773,20.3202,2.209,9.2399,0.4557,5.92,22.5505,133.4987,13.3106,"['Cs-1 @ a-2', 'F-2 @ i-2', 'F-2 @ i-2', 'F-2 @ i-2', 'Rb-2 @ i-2', 'Y-1 @ h-2']",-3.5741
wbm-4-25965,Yb2Ta1Al1O6,4.1714,0.088,29.541,1.5968,30.8663,2.644,3.96,33.7125,133.5014,2.8461,"['Al-1 @ a-12', 'O-2 @ i-12', 'O-4 @ j-12', 'Ta-1 @ d-12', 'Yb-2 @ i-12']",-3.6601
wbm-3-54878,Sr2Dy1Ta1O6,4.4762,0.0923,31.318,1.7318,29.2203,2.2126,3.73,35.7942,133.5125,6.5739,"['Dy-1 @ a-12', 'O-2 @ i-12', 'O-4 @ j-12', 'Sr-2 @ i-12', 'Ta-1 @ d-12']",-3.6043
mp-1228490,Ba2La2Mg1Ti3O12,5.1416,0.1402,52.3044,7.6512,35.5534,2.3181,2.3246,57.446,133.5391,21.8927,"['Ba-2 @ c-166', 'La-2 @ c-166', 'Mg-1 @ a-166', 'O-6 @ h-166', 'O-6 @ h-166', 'Ti-1 @ b-166', 'Ti-2 @ c-166']",-3.5624
mp-1209215,Sb24I8O32,6.0058,0.2236,46.6728,10.2278,20.0772,4.2889,2.5352,52.6786,133.5509,32.6015,"['I-4 @ a-33', 'I-4 @ a-33', 'O-4 @ a-33', 'O-4 @ a-33', 'O-4 @ a-33', 'O-4 @ a-33', 'O-4 @ a-33', 'O-4 @ a-33', 'O-4 @ a-33', 'O-4 @ a-33', 'Sb-4 @ a-33', 'Sb-4 @ a-33', 'Sb-4 @ a-33', 'Sb-4 @ a-33', 'Sb-4 @ a-33', 'Sb-4 @ a-33']",-1.5464
mp-770998,Gd2Ta6O18,5.8121,0.1147,40.7444,1.5948,40.7587,1.7497,2.8701,46.5565,133.6218,5.7978,"['Gd-2 @ e-11', 'O-2 @ e-11', 'O-2 @ e-11', 'O-2 @ e-11', 'O-4 @ f-11', 'O-4 @ f-11', 'O-4 @ f-11', 'Ta-2 @ a-11', 'Ta-4 @ f-11']",-3.5186
mp-29644,Ge1Bi4Te7,29.8929,1.2089,155.9208,156.2344,204.249,162.4916,0.7193,185.8137,133.6558,18.4353,"['Bi-2 @ d-164', 'Bi-2 @ d-164', 'Ge-1 @ a-164', 'Te-1 @ b-164', 'Te-2 @ c-164', 'Te-2 @ d-164', 'Te-2 @ d-164']",-0.2075
mp-554507,Na4Al2Ni2F14,2.1455,0.0706,27.3024,3.7991,24.941,6.7699,4.5396,29.4479,133.6816,4.5069,"['Al-2 @ a-74', 'F-2 @ e-74', 'F-4 @ h-74', 'F-8 @ j-74', 'Na-2 @ b-74', 'Na-2 @ c-74', 'Ni-2 @ d-74']",-3.0838
wbm-1-43180,K2Ca1Ta2O7,4.1218,0.0896,61.0907,7.2198,83.1012,12.5515,2.05,65.2125,133.6857,17.8886,"['Ca-1 @ a-139', 'K-2 @ e-139', 'O-1 @ b-139', 'O-2 @ e-139', 'O-4 @ g-139', 'Ta-2 @ e-139']",-3.13
mp-1220709,Nb3Sb3O13,6.2493,0.1296,44.4174,3.5117,48.2937,5.0319,2.64,50.6667,133.7601,2.373,"['Nb-1 @ a-8', 'Nb-2 @ b-8', 'O-1 @ a-8', 'O-1 @ a-8', 'O-1 @ a-8', 'O-1 @ a-8', 'O-1 @ a-8', 'O-2 @ b-8', 'O-2 @ b-8', 'O-2 @ b-8', 'O-2 @ b-8', 'Sb-1 @ a-8', 'Sb-2 @ b-8']",-2.4854
mp-1019601,Ce1Zr7O16,5.8679,0.152,57.099,3.1592,69.9522,9.1273,2.1244,62.9668,133.7667,6.9854,"['Ce-1 @ a-115', 'O-4 @ j-115', 'O-4 @ j-115', 'O-4 @ k-115', 'O-4 @ k-115', 'Zr-1 @ b-115', 'Zr-2 @ g-115', 'Zr-4 @ i-115']",-3.7931
mp-1244555,Ca4Ti12O28,5.7413,0.1093,41.1392,3.1624,40.6572,3.2873,2.8539,46.8805,133.7924,6.2233,"['Ca-4 @ c-62', 'O-4 @ c-62', 'O-8 @ d-62', 'O-8 @ d-62', 'O-8 @ d-62', 'Ti-4 @ c-62', 'Ti-8 @ d-62']",-3.4876
mp-3751,Al2Tl2F8,2.7886,0.0995,26.9583,2.1251,26.4743,3.0902,4.5016,29.7469,133.9085,3.2726,"['Al-2 @ c-15', 'F-4 @ f-15', 'F-4 @ f-15', 'Tl-2 @ e-15']",-3.3028
mp-1232082,Tm4Mg2Se8,8.9876,0.1985,56.3106,288.3356,37.1541,6.7022,2.0508,65.2982,133.9135,28.1441,"['Mg-2 @ a-122', 'Se-8 @ e-122', 'Tm-4 @ d-122']",-1.5774
wbm-1-25047,Li1Al1Tl2F6,2.8551,0.096,26.0287,2.2512,28.8493,2.2983,4.64,28.8838,134.0207,0.0345,"['Al-1 @ a-225', 'F-6 @ e-225', 'Li-1 @ b-225', 'Tl-2 @ c-225']",-3.0098
mp-769266,Ca12Ta8O32,4.4207,0.1035,28.223,1.5814,25.1751,1.403,4.1056,32.6437,134.0219,7.4686,"['Ca-2 @ a-88', 'Ca-2 @ b-88', 'Ca-8 @ f-88', 'O-8 @ f-88', 'O-8 @ f-88', 'O-8 @ f-88', 'O-8 @ f-88', 'Ta-8 @ f-88']",-3.4841
mp-674993,K4Pb8Cl20,3.5405,0.1145,36.0872,2.2354,17.5312,1.6986,3.3843,39.6276,134.1118,22.0965,"['Cl-4 @ a-33', 'Cl-4 @ a-33', 'Cl-4 @ a-33', 'Cl-4 @ a-33', 'Cl-4 @ a-33', 'K-4 @ a-33', 'Pb-4 @ a-33', 'Pb-4 @ a-33']",-1.7256
mp-1222976,La2Ta2Bi4O14,6.7692,0.1646,61.6002,6.4838,34.2086,4.3365,1.9634,68.3694,134.2364,34.1608,"['Bi-2 @ a-74', 'Bi-2 @ c-74', 'La-2 @ b-74', 'O-2 @ e-74', 'O-2 @ e-74', 'O-2 @ e-74', 'O-8 @ j-74', 'Ta-2 @ d-74']",-2.7269
mp-31121,Ho4Sc4O12,4.8362,0.0939,25.1876,1.2215,26.3149,1.1886,4.476,30.0238,134.3866,3.7089,"['Ho-4 @ c-62', 'O-4 @ c-62', 'O-8 @ d-62', 'Sc-4 @ a-62']",-3.9773
wbm-3-53793,Yb2Ta1Ga1O6,4.3317,0.0887,28.7198,1.3105,30.5923,2.5183,4.07,33.0514,134.5193,2.4592,"['Ga-1 @ a-12', 'O-2 @ i-12', 'O-4 @ j-12', 'Ta-1 @ d-12', 'Yb-2 @ i-12']",-3.3459
mp-1228352,Ba6Zr2Nb8O30,5.5501,0.1172,54.4144,3.3365,59.8568,3.7752,2.2437,59.9645,134.5424,0.1077,"['Ba-2 @ a-100', 'Ba-4 @ c-100', 'Nb-8 @ d-100', 'O-2 @ b-100', 'O-4 @ c-100', 'O-8 @ d-100', 'O-8 @ d-100', 'O-8 @ d-100', 'Zr-2 @ b-100']",-3.2973
mp-769268,Sr8Ta4O18,4.2751,0.1059,28.2119,1.6942,34.4878,2.5384,4.1431,32.487,134.5969,2.0008,"['O-12 @ g-165', 'O-6 @ f-165', 'Sr-4 @ d-165', 'Sr-4 @ d-165', 'Ta-4 @ c-165']",-3.4046
mp-17101,Ca4Nb8O24,5.2084,0.103,31.9245,1.6748,33.9345,1.4338,3.6249,37.1329,134.6031,3.1984,"['Ca-4 @ c-60', 'Nb-8 @ d-60', 'O-8 @ d-60', 'O-8 @ d-60', 'O-8 @ d-60']",-3.2477
mp-27377,K4Zr5O12,4.5393,0.1019,37.6598,2.183,67.5253,37.6092,3.19,42.1991,134.6153,25.3261,"['K-2 @ c-164', 'K-2 @ d-164', 'O-6 @ i-164', 'O-6 @ i-164', 'Zr-1 @ a-164', 'Zr-2 @ d-164', 'Zr-2 @ d-164']",-3.2755
mp-1201727,Ti16O32,5.6351,0.104,49.3535,4.9826,29.6278,1.0939,2.4488,54.9886,134.6561,25.3608,"['O-4 @ c-62', 'O-4 @ c-62', 'O-4 @ c-62', 'O-4 @ c-62', 'O-4 @ c-62', 'O-4 @ c-62', 'O-4 @ c-62', 'O-4 @ c-62', 'Ti-4 @ c-62', 'Ti-4 @ c-62', 'Ti-4 @ c-62', 'Ti-4 @ c-62']",-3.4445
mp-1218245,Sr1La2Sc2O7,4.7188,0.1077,34.292,1.8077,59.7945,6.873,3.4542,39.0108,134.751,20.7838,"['La-2 @ e-139', 'O-1 @ a-139', 'O-2 @ e-139', 'O-4 @ g-139', 'Sc-2 @ e-139', 'Sr-1 @ b-139']",-3.7718
mp-1113016,Cs2Li1In1F6,2.4136,0.0765,23.3136,7.4436,26.9883,6.0425,5.2384,25.7273,134.7698,1.261,"['Cs-2 @ c-225', 'F-6 @ e-225', 'In-1 @ a-225', 'Li-1 @ b-225']",-3.0031
wbm-1-41998,Ba2Pr1Ta1O6,4.6467,0.0969,33.8666,2.5881,39.5869,3.7508,3.5,38.5133,134.7965,1.0737,"['Ba-2 @ d-87', 'O-2 @ e-87', 'O-4 @ h-87', 'Pr-1 @ a-87', 'Ta-1 @ b-87']",-3.4835
mp-1188447,Ca4Ho2Ta2O12,4.5026,0.0925,28.728,1.5086,26.0124,1.5606,4.0571,33.2306,134.82,7.2183,"['Ca-4 @ e-14', 'Ho-2 @ a-14', 'O-4 @ e-14', 'O-4 @ e-14', 'O-4 @ e-14', 'Ta-2 @ d-14']",-3.6272
mp-756127,Ta4Nb4O20,5.7305,0.133,52.1143,2.6073,62.6956,13.3291,2.3323,57.8448,134.9114,4.8508,"['Nb-4 @ c-62', 'O-4 @ a-62', 'O-4 @ c-62', 'O-4 @ c-62', 'O-8 @ d-62', 'Ta-4 @ c-62']",-3.1567
mp-15155,Na2Sm2Ti3O10,5.2178,0.1203,61.6391,10.6544,87.5811,20.3622,2.019,66.8569,134.9841,20.7242,"['Na-2 @ e-139', 'O-2 @ c-139', 'O-2 @ e-139', 'O-2 @ e-139', 'O-4 @ g-139', 'Sm-2 @ e-139', 'Ti-1 @ a-139', 'Ti-2 @ e-139']",-3.3643
mp-1539667,Cs2Pb2Cl6,3.5863,0.1033,45.7521,2.6773,49.8814,2.5798,2.7365,49.3384,135.0145,0.543,"['Cl-2 @ a-127', 'Cl-4 @ h-127', 'Cs-2 @ d-127', 'Pb-2 @ b-127']",-1.8777
mp-4471,Sc4Al4O12,4.4634,0.094,24.9378,1.2623,26.7568,1.9475,4.5931,29.4013,135.0429,2.6445,"['Al-4 @ a-62', 'O-4 @ c-62', 'O-8 @ d-62', 'Sc-4 @ c-62']",-3.6788
mp-774752,Li8Mg4Ti12O32,4.8689,0.1383,36.1634,1.4932,36.6307,7.441,3.2915,41.0323,135.0577,4.4016,"['Li-4 @ a-198', 'Li-4 @ a-198', 'Mg-4 @ a-198', 'O-12 @ b-198', 'O-12 @ b-198', 'O-4 @ a-198', 'O-4 @ a-198', 'Ti-12 @ b-198']",-3.2476
mp-1521784,Ba4Gd4Nb4Sn4O24,5.8098,0.153,73.5939,3.4547,42.341,3.1393,1.7019,79.4037,135.1372,37.0627,"['Ba-2 @ a-48', 'Ba-2 @ b-48', 'Gd-4 @ e-48', 'Nb-4 @ f-48', 'O-8 @ m-48', 'O-8 @ m-48', 'O-8 @ m-48', 'Sn-2 @ c-48', 'Sn-2 @ d-48']",-2.983
mp-1228118,Ba6Mg2Ti2W2O18,4.536,0.0973,39.3705,1.8861,49.1394,4.436,3.0826,43.9065,135.3461,5.2329,"['Ba-2 @ a-186', 'Ba-2 @ b-186', 'Ba-2 @ b-186', 'Mg-2 @ a-186', 'O-6 @ c-186', 'O-6 @ c-186', 'O-6 @ c-186', 'Ti-2 @ b-186', 'W-2 @ b-186']",-3.1322
wbm-3-56067,Yb1Ti1Ge2O7,3.8334,0.0771,41.3191,3.9349,19.8846,1.2227,3.0,45.1524,135.4573,25.2679,"['Ge-2 @ c-5', 'O-1 @ a-5', 'O-2 @ c-5', 'O-2 @ c-5', 'O-2 @ c-5', 'Ti-1 @ b-5', 'Yb-1 @ b-5']",-2.8457
mp-559378,Ba10Ta4Cl4O18,4.0358,0.0894,34.433,1.2791,28.2538,2.4993,3.5216,38.4689,135.4719,10.2151,"['Ba-2 @ c-194', 'Ba-4 @ f-194', 'Ba-4 @ f-194', 'Cl-4 @ f-194', 'O-12 @ k-194', 'O-6 @ h-194', 'Ta-4 @ e-194']",-3.3171
wbm-1-7285,C2Br2F6,2.4768,0.099,25.5757,2.3045,27.5606,4.0361,4.83,28.0525,135.4937,0.4919,"['Br-2 @ a-36', 'C-2 @ a-36', 'F-2 @ a-36', 'F-4 @ b-36']",-1.5719
mp-1223594,K2Ca4Nb6O20,5.088,0.112,63.2051,7.7027,66.9758,6.7813,1.9878,68.2931,135.753,1.3173,"['Ca-2 @ a-36', 'Ca-2 @ a-36', 'K-2 @ a-36', 'Nb-2 @ a-36', 'Nb-2 @ a-36', 'Nb-2 @ a-36', 'O-2 @ a-36', 'O-2 @ a-36', 'O-2 @ a-36', 'O-2 @ a-36', 'O-2 @ a-36', 'O-2 @ a-36', 'O-2 @ a-36', 'O-2 @ a-36', 'O-2 @ a-36', 'O-2 @ a-36']",-3.1576
mp-1223401,K2Nb8As2O26,5.7579,0.1065,50.4692,2.3837,25.1229,1.5875,2.4151,56.2271,135.7941,31.1042,"['As-2 @ a-36', 'K-2 @ a-36', 'Nb-4 @ b-36', 'Nb-4 @ b-36', 'O-2 @ a-36', 'O-2 @ a-36', 'O-2 @ a-36', 'O-4 @ b-36', 'O-4 @ b-36', 'O-4 @ b-36', 'O-4 @ b-36', 'O-4 @ b-36']",-2.7907
mp-1539101,Te2Se2O8,4.7729,0.1404,39.3338,1.7866,45.2899,5.524,3.0796,44.1067,135.8308,1.1833,"['O-2 @ b-46', 'O-2 @ b-46', 'O-4 @ c-46', 'Se-2 @ b-46', 'Te-2 @ b-46']",-1.3587
wbm-2-16598,Pr2Pb1F8,2.7966,0.0924,23.3839,2.0245,16.4964,1.1803,5.19,26.1805,135.8769,9.6841,"['F-2 @ i-12', 'F-2 @ i-12', 'F-2 @ i-12', 'F-2 @ i-12', 'Pb-1 @ a-12', 'Pr-2 @ i-12']",-3.9445
mp-676240,Ti4Cd2O12,5.7266,0.2467,57.913,5.8757,50.7778,5.4292,2.1357,63.6396,135.9151,12.8619,"['Cd-2 @ a-4', 'O-2 @ a-4', 'O-2 @ a-4', 'O-2 @ a-4', 'O-2 @ a-4', 'O-2 @ a-4', 'O-2 @ a-4', 'Ti-2 @ a-4', 'Ti-2 @ a-4']",-2.1231