material_id,formula,diel_elec_wren,diel_elec_ale,diel_ionic_wren,diel_ionic_ale,diel_total_wren,diel_total_ale,bandgap_pbe,diel_total_wren_indi,fom_wren,ae_indi_direct,wyckoff,e_form
mp-554675,Sr1Ta2Bi2O9,5.1008,0.0957,126.0397,4.2424,87.6764,39.2197,2.0651,131.1405,270.8183,43.4641,"['Bi-2 @ e-139', 'O-1 @ a-139', 'O-2 @ d-139', 'O-2 @ e-139', 'O-4 @ g-139', 'Sr-1 @ b-139', 'Ta-2 @ e-139']",-2.8248
wbm-1-38525,Cs1Ta1O3,5.1313,0.1419,77.9632,15.0252,53.1533,9.831,3.27,83.0945,271.7191,29.9412,"['Cs-1 @ a-160', 'O-3 @ b-160', 'Ta-1 @ a-160']",-2.8279
mp-768074,Li4Ta4W4O24,4.8392,0.0872,77.7708,6.473,78.8679,6.6578,3.2939,82.6101,272.1093,3.7421,"['Li-4 @ a-91', 'O-4 @ c-91', 'O-4 @ c-91', 'O-8 @ d-91', 'O-8 @ d-91', 'Ta-4 @ a-91', 'W-4 @ b-91']",-2.6658
wbm-1-44153,Cs2Na1Ti1O1F5,2.5599,0.0743,68.1509,8.3908,63.693,37.1254,3.87,70.7108,273.6508,7.0177,"['Cs-2 @ b-107', 'F-1 @ a-107', 'F-4 @ c-107', 'Na-1 @ a-107', 'O-1 @ a-107', 'Ti-1 @ a-107']",-3.3142
wbm-1-15094,Rb1Ba1F3,2.3241,0.0686,55.685,6.3226,57.2315,12.437,4.72,58.0091,273.8029,0.7776,"['Ba-1 @ a-221', 'F-3 @ d-221', 'Rb-1 @ b-221']",-3.5272
mp-1210436,Na4Mg2Fe2F14,2.1483,0.0716,68.3154,9.1043,51.7368,39.161,3.9041,70.4637,275.0974,18.7269,"['F-2 @ e-74', 'F-4 @ h-74', 'F-8 @ j-74', 'Fe-2 @ a-74', 'Mg-2 @ c-74', 'Na-2 @ b-74', 'Na-2 @ d-74']",-3.1909
wbm-1-15412,Sb2F8,3.0831,0.1014,108.991,20.1887,57.3635,49.154,2.46,112.074,275.7021,54.7105,"['F-1 @ a-1', 'F-1 @ a-1', 'F-1 @ a-1', 'F-1 @ a-1', 'F-1 @ a-1', 'F-1 @ a-1', 'F-1 @ a-1', 'F-1 @ a-1', 'Sb-1 @ a-1', 'Sb-1 @ a-1']",-2.5025
mp-5977,Nd4Zr4O14,5.0137,0.1541,75.4271,4.8634,62.5043,5.0541,3.443,80.4408,276.9578,17.9365,"['Nd-4 @ c-227', 'O-12 @ f-227', 'O-2 @ a-227', 'Zr-4 @ d-227']",-3.8521
wbm-1-50759,Pb4S4,16.9322,0.8853,320.823,18.6821,317.2237,26.8605,0.82,337.7552,276.9593,20.5315,"['Pb-4 @ a-225', 'S-4 @ b-225']",-0.8639
mp-559143,Pb6S2O12,4.289,0.0817,89.6493,11.3312,126.9912,43.9429,2.9556,93.9383,277.644,33.0529,"['O-2 @ i-2', 'O-2 @ i-2', 'O-2 @ i-2', 'O-2 @ i-2', 'O-2 @ i-2', 'O-2 @ i-2', 'Pb-2 @ i-2', 'Pb-2 @ i-2', 'Pb-2 @ i-2', 'S-2 @ i-2']",-1.7678
mp-18786,Ca8Co4Si8O28,17.1461,138.4857,69.3514,6.5448,162.9876,80.7246,3.221,86.4975,278.6083,76.4902,"['Ca-8 @ e-113', 'Co-4 @ a-113', 'O-16 @ f-113', 'O-4 @ c-113', 'O-8 @ e-113', 'Si-8 @ e-113']",-3.0976
mp-1223312,K2Ti6Nb2O18,6.0041,0.1063,105.1075,9.6368,91.1641,29.9425,2.5119,111.1116,279.1012,19.9475,"['K-2 @ a-31', 'Nb-2 @ a-31', 'O-2 @ a-31', 'O-2 @ a-31', 'O-2 @ a-31', 'O-2 @ a-31', 'O-2 @ a-31', 'O-2 @ a-31', 'O-2 @ a-31', 'O-2 @ a-31', 'O-2 @ a-31', 'Ti-2 @ a-31', 'Ti-2 @ a-31', 'Ti-2 @ a-31']",-3.2821
wbm-1-9806,Pb2Cl4,4.7576,0.1252,81.6737,13.658,49.2346,1.9266,3.24,86.4313,280.0374,37.1967,"['Cl-2 @ a-129', 'Cl-2 @ c-129', 'Pb-2 @ c-129']",-1.4714
mp-1223508,K2Lu2Ta4O14,4.87,0.109,118.0274,23.158,97.2929,40.6186,2.2807,122.8974,280.292,25.6044,"['K-2 @ a-74', 'Lu-2 @ c-74', 'O-2 @ e-74', 'O-2 @ e-74', 'O-2 @ e-74', 'O-8 @ j-74', 'Ta-2 @ b-74', 'Ta-2 @ d-74']",-3.3482
mp-1079050,La2As2O6,4.9012,0.1341,100.1466,9.9202,97.2543,7.6662,2.6954,105.0478,283.1459,7.7935,"['As-2 @ e-11', 'La-2 @ e-11', 'O-2 @ e-11', 'O-4 @ f-11']",-2.8751
mp-1221019,Na1Nb4Bi5O18,7.1705,0.1925,96.2852,9.5265,72.6817,6.5723,2.7619,103.4557,285.7343,30.774,"['Bi-1 @ a-8', 'Bi-2 @ b-8', 'Bi-2 @ b-8', 'Na-1 @ a-8', 'Nb-2 @ b-8', 'Nb-2 @ b-8', 'O-1 @ a-8', 'O-1 @ a-8', 'O-2 @ b-8', 'O-2 @ b-8', 'O-2 @ b-8', 'O-2 @ b-8', 'O-2 @ b-8', 'O-2 @ b-8', 'O-2 @ b-8', 'O-2 @ b-8']",-2.4344
mp-1194400,Ca4Al2H4O2F14,2.3253,0.0808,41.5987,3.3657,8.4375,0.3967,6.5056,43.924,285.7518,35.4865,"['Al-1 @ a-2', 'Al-1 @ h-2', 'Ca-2 @ i-2', 'Ca-2 @ i-2', 'F-2 @ i-2', 'F-2 @ i-2', 'F-2 @ i-2', 'F-2 @ i-2', 'F-2 @ i-2', 'F-2 @ i-2', 'F-2 @ i-2', 'H-2 @ i-2', 'H-2 @ i-2', 'O-2 @ i-2']",-3.4632
wbm-1-15257,Ca1Pb1F4,2.8783,0.0952,61.3987,3.5642,49.7625,13.9858,4.46,64.277,286.6754,14.5145,"['Ca-1 @ a-123', 'F-4 @ i-123', 'Pb-1 @ d-123']",-3.4528
wbm-1-15125,Rb1Sr1F3,2.2237,0.0697,47.8496,12.1262,52.5694,12.5854,5.73,50.0733,286.9202,2.496,"['F-3 @ c-221', 'Rb-1 @ a-221', 'Sr-1 @ b-221']",-3.6567
wbm-3-56785,K1Rb2Hf1O1F5,2.2403,0.0624,64.2436,8.1636,65.6056,19.8354,4.32,66.4839,287.2103,0.8782,"['F-1 @ a-107', 'F-4 @ c-107', 'Hf-1 @ a-107', 'K-1 @ a-107', 'O-1 @ a-107', 'Rb-2 @ b-107']",-3.4447
mp-1220301,Nb2Tl2W2O12,5.9542,0.1635,92.2608,12.7036,92.492,25.5857,2.9316,98.215,287.9272,5.723,"['Nb-2 @ a-74', 'O-2 @ e-74', 'O-2 @ e-74', 'O-8 @ j-74', 'Tl-2 @ e-74', 'W-2 @ c-74']",-2.3773
wbm-1-41613,Zr1Sn1O4,5.183,0.0933,89.501,9.4562,60.6048,10.8654,3.05,94.684,288.7862,34.0792,"['O-2 @ e-119', 'O-2 @ f-119', 'Sn-1 @ a-119', 'Zr-1 @ c-119']",-2.9217
wbm-1-40984,Nb2Bi2O8,6.2067,0.1506,81.4023,26.1022,42.1946,7.1831,3.33,87.609,291.7379,45.4143,"['Bi-2 @ a-141', 'Nb-2 @ b-141', 'O-8 @ h-141']",-2.449
wbm-1-53024,Pb4Se4,20.1846,0.7608,344.9303,25.3032,351.5671,23.5233,0.8,365.1149,292.0919,13.5477,"['Pb-4 @ a-225', 'Se-4 @ b-225']",-0.5594
wbm-2-15734,Cs2K1Gd1F6,2.2571,0.0737,62.8177,8.0918,9.8806,0.668,4.52,65.0748,294.1381,55.1942,"['Cs-2 @ i-2', 'F-2 @ i-2', 'F-2 @ i-2', 'F-2 @ i-2', 'Gd-1 @ a-2', 'K-1 @ h-2']",-3.5805
wbm-3-22931,Cs2K1Gd1F6,2.257,0.0737,62.6386,8.0787,9.8797,0.6654,4.55,64.8955,295.2747,55.0159,"['Cs-2 @ i-2', 'F-2 @ i-2', 'F-2 @ i-2', 'F-2 @ i-2', 'Gd-1 @ a-2', 'K-1 @ e-2']",-3.582
mp-7640,Sc4Si4O14,3.6505,0.0943,74.4748,13.0785,81.3391,10.5025,3.8058,78.1253,297.3294,3.2138,"['O-12 @ f-227', 'O-2 @ a-227', 'Sc-4 @ c-227', 'Si-4 @ d-227']",-3.5321
mp-1194594,Ta8Pb2O22,5.7128,0.1328,85.9602,4.8191,46.1679,5.1546,3.3176,91.673,304.1343,45.505,"['O-2 @ c-155', 'O-2 @ c-155', 'O-3 @ d-155', 'O-3 @ e-155', 'O-6 @ f-155', 'O-6 @ f-155', 'Pb-2 @ c-155', 'Ta-2 @ c-155', 'Ta-3 @ d-155', 'Ta-3 @ e-155']",-3.1577
mp-765342,Li14Ni2O2F14,2.6813,0.0925,83.6997,7.3055,7.5808,0.5611,3.5244,86.381,304.4411,78.8001,"['F-2 @ a-8', 'F-2 @ a-8', 'F-2 @ a-8', 'F-2 @ a-8', 'F-2 @ a-8', 'F-2 @ a-8', 'F-2 @ a-8', 'Li-2 @ a-8', 'Li-2 @ a-8', 'Li-2 @ a-8', 'Li-2 @ a-8', 'Li-2 @ a-8', 'Li-2 @ a-8', 'Li-2 @ a-8', 'Ni-2 @ a-8', 'O-2 @ a-8']",-2.8501
wbm-3-23339,Cs2Rb1Dy1F6,2.3418,0.0782,46.4762,6.4765,9.277,0.5333,6.26,48.818,305.6009,39.5411,"['Cs-2 @ i-2', 'Dy-1 @ a-2', 'F-2 @ i-2', 'F-2 @ i-2', 'F-2 @ i-2', 'Rb-1 @ f-2']",-3.6077
wbm-3-22964,Cs2K1Y1F6,2.2685,0.0763,44.8559,6.5422,9.1515,0.5389,6.51,47.1243,306.7794,37.9728,"['Cs-2 @ i-2', 'F-2 @ i-2', 'F-2 @ i-2', 'F-2 @ i-2', 'K-1 @ a-2', 'Y-1 @ e-2']",-3.6105
mp-773864,Ti1Sn1O4,5.6306,0.0984,129.7628,16.9801,143.8051,27.4114,2.2698,135.3934,307.316,8.4117,"['O-2 @ e-119', 'O-2 @ f-119', 'Sn-1 @ a-119', 'Ti-1 @ c-119']",-2.7485
wbm-2-36394,Na2Yb1Ta2O7,4.55,0.099,94.9892,7.756,76.6183,12.7625,3.12,99.5392,310.5623,22.9208,"['Na-2 @ c-44', 'O-1 @ a-44', 'O-2 @ c-44', 'O-2 @ c-44', 'O-2 @ c-44', 'Ta-2 @ c-44', 'Yb-1 @ b-44']",-3.1541
mp-30900,Ta4Bi4O16,6.006,0.1097,98.7417,5.7476,44.4965,8.2148,2.9755,104.7477,311.6769,60.2512,"['Bi-4 @ c-52', 'O-8 @ e-52', 'O-8 @ e-52', 'Ta-4 @ d-52']",-2.7078
mp-1222712,La1V2Bi1O8,4.6209,0.1546,90.146,6.2109,41.044,3.8643,3.2923,94.767,312.0013,53.7229,"['Bi-1 @ a-119', 'La-1 @ c-119', 'O-4 @ i-119', 'O-4 @ i-119', 'V-1 @ b-119', 'V-1 @ d-119']",-2.6894
wbm-3-22856,K2Rb1Sc1F6,2.2101,0.0706,47.3499,6.7273,9.5963,0.564,6.3,49.5599,312.2275,39.9637,"['F-2 @ i-2', 'F-2 @ i-2', 'F-2 @ i-2', 'K-2 @ i-2', 'Rb-1 @ a-2', 'Sc-1 @ h-2']",-3.5707
mp-1220087,Nd2Ta4O12F2,5.2058,0.1283,90.9061,53.8563,60.5919,36.7653,3.2486,96.1119,312.2292,35.52,"['F-2 @ e-74', 'Nd-2 @ a-74', 'O-2 @ e-74', 'O-2 @ e-74', 'O-8 @ j-74', 'Ta-2 @ b-74', 'Ta-2 @ c-74']",-3.5995
mp-14026,Ca4Ta4O14,4.5771,0.1494,126.499,8.7797,166.693,31.566,2.3961,131.0761,314.0715,35.6169,"['Ca-4 @ c-227', 'O-12 @ f-227', 'O-2 @ a-227', 'Ta-4 @ d-227']",-3.494
mp-4974,La4Zr4O14,5.0628,0.1492,77.1809,5.7059,61.8152,5.2181,3.833,82.2436,315.2398,20.4284,"['La-4 @ c-227', 'O-12 @ f-227', 'O-2 @ a-227', 'Zr-4 @ d-227']",-3.9191
mp-560133,Tl2Pb16Br18O8,5.5633,0.1239,101.2548,15.1922,28.2518,3.7387,2.9557,106.8182,315.7224,78.5664,"['Br-2 @ a-85', 'Br-8 @ g-85', 'Br-8 @ g-85', 'O-8 @ g-85', 'Pb-8 @ g-85', 'Pb-8 @ g-85', 'Tl-2 @ c-85']",-1.1802
wbm-1-44129,K3Zr1O1F5,2.3084,0.0709,64.5559,6.1984,10.5659,0.5282,4.76,66.8643,318.274,56.2984,"['F-1 @ a-8', 'F-2 @ b-8', 'F-2 @ b-8', 'K-1 @ a-8', 'K-1 @ a-8', 'K-1 @ a-8', 'O-1 @ a-8', 'Zr-1 @ a-8']",-3.3868
mp-555678,Na4Ti5O12,5.5048,0.1655,124.746,10.4319,151.2211,22.7439,2.4848,130.2508,323.6471,20.9704,"['Na-2 @ c-147', 'Na-2 @ d-147', 'O-6 @ g-147', 'O-6 @ g-147', 'Ti-1 @ a-147', 'Ti-2 @ d-147', 'Ti-2 @ d-147']",-3.1197
wbm-3-55806,Na2Yb1Nb2O7,4.9049,0.1026,93.7955,10.325,79.5724,11.5295,3.28,98.7004,323.7373,19.128,"['Na-2 @ c-44', 'Nb-2 @ c-44', 'O-1 @ a-44', 'O-2 @ c-44', 'O-2 @ c-44', 'O-2 @ c-44', 'Yb-1 @ b-44']",-2.9823
wbm-2-15751,Cs2K1Tb1F6,2.2955,0.0749,47.7915,7.1287,9.1393,0.5422,6.48,50.087,324.5636,40.9476,"['Cs-2 @ i-2', 'F-2 @ i-2', 'F-2 @ i-2', 'F-2 @ i-2', 'K-1 @ a-2', 'Tb-1 @ e-2']",-3.6167
mp-1220909,Na1Ta4Bi5O18,6.487,0.149,105.409,7.2411,77.6629,15.6268,2.9275,111.8959,327.5753,34.233,"['Bi-1 @ a-8', 'Bi-2 @ b-8', 'Bi-2 @ b-8', 'Na-1 @ a-8', 'O-1 @ a-8', 'O-1 @ a-8', 'O-2 @ b-8', 'O-2 @ b-8', 'O-2 @ b-8', 'O-2 @ b-8', 'O-2 @ b-8', 'O-2 @ b-8', 'O-2 @ b-8', 'O-2 @ b-8', 'Ta-2 @ b-8', 'Ta-2 @ b-8']",-2.5912
mp-30301,Li4Cl4O16,2.4607,0.1298,54.3752,9.182,50.7352,5.782,5.7745,56.8359,328.1989,6.1007,"['Cl-4 @ c-62', 'Li-4 @ a-62', 'O-4 @ c-62', 'O-4 @ c-62', 'O-8 @ d-62']",-1.1173
wbm-1-40356,Ca2Hf1O4,4.0886,0.0886,89.426,8.6491,148.2136,91.8929,3.51,93.5145,328.236,54.6991,"['Ca-2 @ e-139', 'Hf-1 @ a-139', 'O-2 @ c-139', 'O-2 @ e-139']",-3.555
mp-27726,S2O4,2.4519,0.123,100.1546,156.8928,147.6066,23.3056,3.2037,102.6065,328.7204,45.0001,"['O-4 @ b-41', 'S-2 @ a-41']",-1.5324
mp-19100,Sr4Ca2Mo2O12,4.1986,0.0879,142.1521,10.8203,126.3473,26.6195,2.2556,146.3507,330.1086,20.0034,"['Ca-2 @ a-59', 'Mo-2 @ b-59', 'O-4 @ e-59', 'O-4 @ e-59', 'O-4 @ f-59', 'Sr-4 @ f-59']",-2.8972
mp-756581,Li2Nd2Ti4O12,6.6007,0.2255,135.99,15.5701,113.5962,19.1662,2.3176,142.5907,330.4681,28.9944,"['Li-2 @ c-125', 'Nd-2 @ d-125', 'O-2 @ a-125', 'O-2 @ b-125', 'O-8 @ m-125', 'Ti-4 @ g-125']",-3.408
mp-2201,Pb1Se1,20.1846,0.7608,344.9303,25.3032,351.5671,23.5233,0.9081,365.1149,331.5608,13.5477,"['Pb-1 @ a-225', 'Se-1 @ b-225']",-0.5606
mp-22964,Pb2Cl2F2,4.5781,0.0959,84.934,10.7473,48.5015,3.8739,3.7187,89.5121,332.8686,41.0106,"['Cl-2 @ c-129', 'F-2 @ a-129', 'Pb-2 @ c-129']",-2.1477
mp-21276,Pb1S1,16.9322,0.8853,320.823,18.6821,317.2237,26.8605,0.9926,337.7552,335.2558,20.5315,"['Pb-1 @ a-225', 'S-1 @ b-225']",-0.8648
wbm-5-15710,Cs2Ta1O1F5,2.5002,0.0669,65.4031,4.6269,58.4803,18.162,4.97,67.9033,337.4792,9.423,"['Cs-2 @ b-107', 'F-1 @ a-107', 'F-4 @ c-107', 'O-1 @ a-107', 'Ta-1 @ a-107']",-3.4098
wbm-1-44148,K2Na1Hf1O1F5,2.2735,0.0658,69.8839,5.0777,48.3432,13.369,4.69,72.1574,338.4181,23.8142,"['F-1 @ a-107', 'F-4 @ c-107', 'Hf-1 @ a-107', 'K-2 @ b-107', 'Na-1 @ a-107', 'O-1 @ a-107']",-3.4518
mp-3563,Ba5Nb4O15,5.0533,0.1007,125.4566,6.8123,113.2827,39.4429,2.5999,130.5099,339.3126,17.2272,"['Ba-1 @ a-164', 'Ba-2 @ d-164', 'Ba-2 @ d-164', 'Nb-2 @ c-164', 'Nb-2 @ d-164', 'O-3 @ e-164', 'O-6 @ i-164', 'O-6 @ i-164']",-3.2811
mp-755790,Hf4Pb4O12,5.3181,0.0931,112.912,15.1564,43.2085,7.8384,2.8705,118.2302,339.3797,75.0216,"['Hf-4 @ a-62', 'O-4 @ c-62', 'O-8 @ d-62', 'Pb-4 @ c-62']",-2.9942
mp-1218413,Sr3Nb2Zn1O9,4.9158,0.0919,120.7739,6.1463,183.8733,44.6396,2.7002,125.6897,339.3873,58.1836,"['Nb-2 @ d-164', 'O-3 @ e-164', 'O-6 @ i-164', 'Sr-1 @ a-164', 'Sr-2 @ d-164', 'Zn-1 @ b-164']",-3.0805
wbm-1-16486,K3Zr1F7,2.101,0.0619,53.1512,5.6591,12.843,0.9846,6.15,55.2522,339.8009,42.4092,"['F-1 @ a-8', 'F-1 @ a-8', 'F-1 @ a-8', 'F-2 @ b-8', 'F-2 @ b-8', 'K-1 @ a-8', 'K-2 @ b-8', 'Zr-1 @ a-8']",-3.5778
mp-1079680,Ca4Fe4O8,178.1069,14.4321,8.4689,0.9177,41.7169,12.4197,1.8242,186.5758,340.3515,144.8589,"['Ca-4 @ c-113', 'Fe-4 @ a-113', 'O-8 @ e-113']",-2.4828
mp-755798,Zr4Pb4O12,5.6553,0.1001,126.1986,21.1242,62.3441,15.2449,2.6368,131.8538,347.6722,69.5097,"['O-4 @ c-62', 'O-8 @ d-62', 'Pb-4 @ c-62', 'Zr-4 @ a-62']",-2.8504
mp-7648,Si4O8,2.4367,0.1138,62.4731,356.1064,73.4154,175.2204,5.4245,64.9099,352.1035,8.5055,"['O-2 @ a-20', 'O-2 @ b-20', 'O-4 @ c-20', 'Si-4 @ c-20']",-3.2699
mp-12286,Sr4Ta4O14,4.634,0.0986,116.583,11.2944,121.7814,10.2008,2.9098,121.217,352.7172,0.5644,"['O-2 @ a-63', 'O-2 @ c-63', 'O-2 @ c-63', 'O-4 @ f-63', 'O-4 @ f-63', 'Sr-2 @ c-63', 'Sr-2 @ c-63', 'Ta-2 @ c-63', 'Ta-2 @ c-63']",-3.5114
mp-770239,Ba4Ta4O14,4.8301,0.0982,117.9559,9.8775,87.0195,5.4366,2.9093,122.7861,357.2215,35.7665,"['Ba-2 @ c-63', 'Ba-2 @ c-63', 'O-2 @ a-63', 'O-2 @ c-63', 'O-2 @ c-63', 'O-4 @ f-63', 'O-4 @ f-63', 'Ta-2 @ c-63', 'Ta-2 @ c-63']",-3.4512
wbm-1-53019,Pb2Se2,20.1846,0.7608,344.9303,25.3032,351.5671,23.5233,0.99,365.1149,361.4637,13.5477,"['Pb-2 @ a-225', 'Se-2 @ b-225']",-0.5597
mp-5548,Ta4Cd4O14,6.1505,0.1936,157.7605,11.037,174.395,23.0946,2.2295,163.911,365.4396,10.484,"['Cd-4 @ c-227', 'O-12 @ f-227', 'O-2 @ a-227', 'Ta-4 @ d-227']",-2.6994
mp-755663,Ta4Pb4O14,5.9232,0.1296,125.0049,77.552,36.9137,2.916,2.8154,130.9281,368.615,94.0144,"['O-2 @ a-36', 'O-2 @ a-36', 'O-2 @ a-36', 'O-2 @ a-36', 'O-2 @ a-36', 'O-2 @ a-36', 'O-2 @ a-36', 'Pb-2 @ a-36', 'Pb-2 @ a-36', 'Ta-2 @ a-36', 'Ta-2 @ a-36']",-2.7361
mp-3858,Na4Ta4O12,5.4244,0.135,137.1121,263.2888,205.2674,102.1346,2.5927,142.5365,369.5543,62.7309,"['Na-4 @ c-62', 'O-4 @ c-62', 'O-8 @ d-62', 'Ta-4 @ a-62']",-3.0778
wbm-4-28413,Cs2Rb1Hf1O1F5,2.3352,0.066,83.7407,7.0528,76.4106,22.5028,4.35,86.0759,374.43,9.6653,"['Cs-2 @ b-107', 'F-1 @ a-107', 'F-4 @ c-107', 'Hf-1 @ a-107', 'O-1 @ a-107', 'Rb-1 @ a-107']",-3.4424
wbm-1-14830,Cs1Ba1F3,2.362,0.0655,70.3935,2.0984,76.2797,18.0517,5.2,72.7555,378.3286,3.5242,"['Ba-1 @ a-221', 'Cs-1 @ b-221', 'F-3 @ d-221']",-3.5787
wbm-3-23345,Cs2Rb1Tm1F6,2.3454,0.0775,58.3795,7.0323,9.0564,0.5686,6.3,60.725,382.5673,51.6686,"['Cs-2 @ i-2', 'F-2 @ i-2', 'F-2 @ i-2', 'F-2 @ i-2', 'Rb-1 @ a-2', 'Tm-1 @ f-2']",-3.6319
mp-1219571,Rb2Mg2Cr2F12,2.2604,0.0716,111.0283,6.653,76.3339,68.3014,3.3825,113.2887,383.199,36.9548,"['Cr-2 @ a-74', 'F-2 @ e-74', 'F-2 @ e-74', 'F-8 @ j-74', 'Mg-2 @ c-74', 'Rb-2 @ e-74']",-3.2583
wbm-1-44161,Cs3Zr1O1F5,2.4344,0.0676,86.856,9.6839,87.4534,24.4172,4.3,89.2904,383.9486,1.837,"['Cs-1 @ a-107', 'Cs-2 @ b-107', 'F-1 @ a-107', 'F-4 @ c-107', 'O-1 @ a-107', 'Zr-1 @ a-107']",-3.3532
mp-7249,Ba3Nb2Zn1O9,5.1089,0.0945,135.9985,9.9928,162.3199,36.6842,2.7269,141.1073,384.7856,21.2126,"['Ba-1 @ a-164', 'Ba-2 @ d-164', 'Nb-2 @ d-164', 'O-3 @ e-164', 'O-6 @ i-164', 'Zn-1 @ b-164']",-3.0805
mp-20526,Pb2S2,5.9055,0.107,165.0299,12.7733,130.4152,9.5922,2.2577,170.9354,385.9208,40.5202,"['Pb-2 @ c-39', 'S-2 @ c-39']",-0.8063
wbm-2-37161,Rb2Na1Hf1O1F5,2.3051,0.0651,79.0215,4.6215,47.0433,13.9583,4.78,81.3267,388.7414,34.2833,"['F-1 @ a-107', 'F-4 @ c-107', 'Hf-1 @ a-107', 'Na-1 @ a-107', 'O-1 @ a-107', 'Rb-2 @ b-107']",-3.4541
mp-989195,Sc2Cl2O2,4.5085,0.0801,97.0516,1406.9634,182.0123,813.1814,3.9387,101.5601,400.0148,80.4521,"['Cl-2 @ c-129', 'O-2 @ a-129', 'Sc-2 @ c-129']",-3.2774
mp-1025349,Sr2Zr1O4,4.359,0.0924,125.3436,33.5877,129.8815,24.0149,3.1054,129.7026,402.7783,0.1789,"['O-2 @ c-139', 'O-2 @ e-139', 'Sr-2 @ e-139', 'Zr-1 @ a-139']",-3.4692
mp-18888,Sr4Cd2W2O12,4.271,0.0849,110.3877,9.9801,102.2001,38.208,3.5238,114.6587,404.0344,12.4586,"['Cd-2 @ a-59', 'O-4 @ e-59', 'O-4 @ e-59', 'O-4 @ f-59', 'Sr-4 @ f-59', 'W-2 @ b-59']",-2.5451
mp-771957,Ta8Pb4O24,5.6945,0.1078,149.8824,18.7948,57.9823,13.5557,2.6067,155.5769,405.5423,97.5946,"['O-4 @ c-62', 'O-4 @ c-62', 'O-8 @ d-62', 'O-8 @ d-62', 'Pb-4 @ c-62', 'Ta-8 @ d-62']",-3.011
mp-19717,Te1Pb1,27.2104,1.0533,367.0901,32.2195,409.8962,21.8984,1.0582,394.3005,417.2487,15.5958,"['Pb-1 @ a-225', 'Te-1 @ b-225']",-0.4057
mp-766938,K6Li4Nb10O30,5.4007,0.1109,159.2873,9.7543,186.5381,20.7179,2.5679,164.6881,422.9025,21.8501,"['K-2 @ a-100', 'K-4 @ c-100', 'Li-4 @ c-100', 'Nb-2 @ b-100', 'Nb-8 @ d-100', 'O-2 @ b-100', 'O-4 @ c-100', 'O-8 @ d-100', 'O-8 @ d-100', 'O-8 @ d-100']",-2.8767
wbm-2-37157,Cs2Na1Hf1O1F5,2.3778,0.0687,85.7162,4.6266,63.911,19.0551,4.92,88.094,433.4227,24.1831,"['Cs-2 @ b-107', 'F-1 @ a-107', 'F-4 @ c-107', 'Hf-1 @ a-107', 'Na-1 @ a-107', 'O-1 @ a-107']",-3.4446
mp-39542,K1Rb2Zr1O1F5,2.3112,0.064,88.9133,5.1888,94.3652,33.6111,4.7841,91.2245,436.4271,3.1407,"['F-1 @ a-107', 'F-4 @ c-107', 'K-1 @ a-107', 'O-1 @ a-107', 'Rb-2 @ b-107', 'Zr-1 @ a-107']",-3.3775
mp-39511,Li2Ca2Ta4O12F2,4.7486,0.1231,114.6574,37.8151,118.574,92.8595,3.665,119.406,437.6231,0.832,"['Ca-2 @ a-74', 'F-2 @ e-74', 'Li-2 @ c-74', 'O-2 @ e-74', 'O-2 @ e-74', 'O-8 @ j-74', 'Ta-2 @ b-74', 'Ta-2 @ d-74']",-3.4095
wbm-2-37167,Cs2Na1Zr1O1F5,2.4486,0.0698,90.0637,6.2135,82.7686,26.9885,4.77,92.5122,441.2833,9.7436,"['Cs-2 @ b-107', 'F-1 @ a-107', 'F-4 @ c-107', 'Na-1 @ a-107', 'O-1 @ a-107', 'Zr-1 @ a-107']",-3.3834
wbm-2-15752,Cs2K1Tm1F6,2.2923,0.0759,65.6581,6.5407,8.9955,0.5732,6.54,67.9503,444.3951,58.9548,"['Cs-2 @ i-2', 'F-2 @ i-2', 'F-2 @ i-2', 'F-2 @ i-2', 'K-1 @ a-2', 'Tm-1 @ e-2']",-3.649
wbm-3-56779,Cs2K1Hf1O1F5,2.3104,0.0658,84.2558,6.6335,82.7312,26.7826,5.15,86.5662,445.8158,3.835,"['Cs-2 @ b-107', 'F-1 @ a-107', 'F-4 @ c-107', 'Hf-1 @ a-107', 'K-1 @ a-107', 'O-1 @ a-107']",-3.4269
wbm-2-37163,Rb2Na1Zr1O1F5,2.373,0.0665,89.2857,4.8398,74.0761,25.3296,4.89,91.6587,448.2108,17.5826,"['F-1 @ a-107', 'F-4 @ c-107', 'Na-1 @ a-107', 'O-1 @ a-107', 'Rb-2 @ b-107', 'Zr-1 @ a-107']",-3.3895
wbm-1-44152,K2Na1Zr1O1F5,2.3374,0.0676,88.6051,4.6819,74.4654,24.3669,4.95,90.9425,450.1655,16.4772,"['F-1 @ a-107', 'F-4 @ c-107', 'K-2 @ b-107', 'Na-1 @ a-107', 'O-1 @ a-107', 'Zr-1 @ a-107']",-3.3842
mp-40143,Cs2K1Zr1O1F5,2.383,0.0669,90.6912,6.5261,96.6268,33.1819,4.8767,93.0742,453.8951,3.5526,"['Cs-2 @ b-107', 'F-1 @ a-107', 'F-4 @ c-107', 'K-1 @ a-107', 'O-1 @ a-107', 'Zr-1 @ a-107']",-3.4003
wbm-3-22576,Cs3Tm1F6,2.3933,0.0778,72.9952,7.0069,9.4639,0.625,6.09,75.3886,459.1163,65.9247,"['Cs-1 @ a-2', 'Cs-2 @ i-2', 'F-2 @ i-2', 'F-2 @ i-2', 'F-2 @ i-2', 'Tm-1 @ h-2']",-3.6186
mp-42022,Cs2Rb1Zr1O1F5,2.4088,0.0667,91.2527,8.7914,90.5339,27.4931,4.9184,93.6615,460.6648,3.1276,"['Cs-2 @ b-107', 'F-1 @ a-107', 'F-4 @ c-107', 'O-1 @ a-107', 'Rb-1 @ a-107', 'Zr-1 @ a-107']",-3.3787
wbm-3-23471,Cs1Rb2Sc1F6,2.3686,0.0848,73.9062,4.3663,9.9838,0.5838,6.09,76.2748,464.5133,66.291,"['Cs-1 @ a-2', 'F-2 @ i-2', 'F-2 @ i-2', 'F-2 @ i-2', 'Rb-2 @ i-2', 'Sc-1 @ h-2']",-3.5523
mp-1210432,Na4Mg2Cr2F14,2.1699,0.0703,108.2455,9.8375,85.4886,120.536,4.2549,110.4155,469.8067,24.9268,"['Cr-2 @ a-74', 'F-2 @ e-74', 'F-4 @ h-74', 'F-8 @ j-74', 'Mg-2 @ c-74', 'Na-2 @ b-74', 'Na-2 @ d-74']",-3.3029
mp-6474,Ba3Mg1Nb2O9,4.9215,0.0904,173.5087,16.763,208.422,44.8922,2.6514,178.4302,473.0897,29.9919,"['Ba-1 @ a-164', 'Ba-2 @ d-164', 'Mg-1 @ b-164', 'Nb-2 @ d-164', 'O-3 @ e-164', 'O-6 @ i-164']",-3.2772
mp-1226157,Cs2Ti1W3O12,5.1969,0.1661,163.1653,13.2252,160.1152,29.3456,2.8344,168.3622,477.2059,8.247,"['Cs-2 @ c-166', 'O-6 @ h-166', 'O-6 @ h-166', 'Ti-1 @ a-166', 'W-3 @ d-166']",-2.5042
wbm-3-23732,Cs3Y1F6,2.3669,0.0767,76.7435,6.0933,9.4725,0.5583,6.07,79.1104,480.1998,69.6378,"['Cs-1 @ a-2', 'Cs-2 @ i-2', 'F-2 @ i-2', 'F-2 @ i-2', 'F-2 @ i-2', 'Y-1 @ h-2']",-3.5829
mp-28940,Sr8Nb4O18,4.8129,0.1197,124.0494,5.4899,70.2209,10.0067,3.7277,128.8623,480.36,58.6414,"['Nb-2 @ d-147', 'Nb-2 @ d-147', 'O-6 @ g-147', 'O-6 @ g-147', 'O-6 @ g-147', 'Sr-1 @ a-147', 'Sr-1 @ b-147', 'Sr-2 @ c-147', 'Sr-2 @ d-147', 'Sr-2 @ d-147']",-3.2966
wbm-2-15733,Cs2K1Er1F6,2.3015,0.0756,71.3876,6.2499,9.1261,0.5692,6.53,73.6891,481.1897,64.563,"['Cs-2 @ i-2', 'Er-1 @ a-2', 'F-2 @ i-2', 'F-2 @ i-2', 'F-2 @ i-2', 'K-1 @ e-2']",-3.6367
wbm-1-15656,Cs3Pr1F6,2.2395,0.0776,95.5405,21.7793,46.7133,26.9526,4.93,97.78,482.0552,51.0667,"['Cs-1 @ a-139', 'Cs-2 @ d-139', 'F-2 @ e-139', 'F-4 @ j-139', 'Pr-1 @ b-139']",-3.4577